<?xml version="1.0" encoding="ISO-8859-1"?>
<modeling>
 <generator>
  <i name="program" type="string">vasp </i>
  <i name="version" type="string">6.0.8  </i>
  <i name="subversion" type="string">29Jun18 (build Jun 13 2019 12:54:44) complex                          parallel </i>
  <i name="platform" type="string">IFC18_CrayMPICH </i>
  <i name="date" type="string">2021 12 05 </i>
  <i name="time" type="string">14:21:50 </i>
 </generator>
 <incar>
  <i type="int" name="KPAR">     4</i>
  <i type="int" name="NPAR">     4</i>
  <i type="int" name="ISTART">     0</i>
  <i type="string" name="PREC"> ACC</i>
  <i type="string" name="ALGO"> Normal</i>
  <i type="logical" name="ADDGRID"> T  </i>
  <i type="int" name="ISPIN">     1</i>
  <i type="int" name="NELMIN">     5</i>
  <i type="int" name="IBRION">    -1</i>
  <i name="EDIFF">      0.00000010</i>
  <i type="int" name="NSW">     0</i>
  <i type="int" name="ISIF">     3</i>
  <i name="ENCUT">    700.00000000</i>
  <i type="logical" name="LREAL"> F  </i>
  <i type="int" name="ISMEAR">     0</i>
  <i name="SIGMA">      0.01000000</i>
  <i type="logical" name="LWAVE"> F  </i>
  <i type="logical" name="LCHARG"> F  </i>
  <i type="logical" name="LVTOT"> F  </i>
  <i type="string" name="ALGO"> Normal</i>
  <i type="string" name="GGA"> PS</i>
  <i name="EDIFF">      0.00000010</i>
  <i type="int" name="ISPIN">     1</i>
 </incar>
 <structure name="primitive_cell" >
  <crystal>
   <varray name="basis" >
    <v>       0.00000000       3.29537428       3.29537428 </v>
    <v>       3.29537428       0.00000000       3.29537428 </v>
    <v>       3.29537428       3.29537428       0.00000000 </v>
   </varray>
   <i name="volume">     71.57217906 </i>
   <varray name="rec_basis" >
    <v>      -0.15172783       0.15172783       0.15172783 </v>
    <v>       0.15172783      -0.15172783       0.15172783 </v>
    <v>       0.15172783       0.15172783      -0.15172783 </v>
   </varray>
  </crystal>
  <varray name="positions" >
   <v>       0.25000000       0.25000000       0.25000000 </v>
   <v>       0.75000000       0.75000000       0.75000000 </v>
   <v>       0.00000000       0.00000000       0.00000000 </v>
  </varray>
 </structure>
 <varray name="primitive_index" >
  <v type="int" >        1 </v>
  <v type="int" >        2 </v>
  <v type="int" >        3 </v>
 </varray>
 <kpoints>
  <generation param="Gamma">
   <v type="int" name="divisions">      13       13       13 </v>
   <v name="usershift">      0.00000000       0.00000000       0.00000000 </v>
   <v name="genvec1">      0.07692308       0.00000000      -0.00000000 </v>
   <v name="genvec2">      0.00000000       0.07692308       0.00000000 </v>
   <v name="genvec3">     -0.00000000      -0.00000000       0.07692308 </v>
   <v name="shift">      0.00000000       0.00000000       0.00000000 </v>
  </generation>
  <varray name="kpointlist" >
   <v>       0.00000000       0.00000000       0.00000000 </v>
   <v>       0.07692308       0.00000000      -0.00000000 </v>
   <v>       0.15384615      -0.00000000       0.00000000 </v>
   <v>       0.23076923       0.00000000      -0.00000000 </v>
   <v>       0.30769231      -0.00000000       0.00000000 </v>
   <v>       0.38461538      -0.00000000       0.00000000 </v>
   <v>       0.46153846      -0.00000000       0.00000000 </v>
   <v>       0.07692308       0.07692308       0.00000000 </v>
   <v>       0.15384615       0.07692308       0.00000000 </v>
   <v>       0.23076923       0.07692308       0.00000000 </v>
   <v>       0.30769231       0.07692308       0.00000000 </v>
   <v>       0.38461538       0.07692308       0.00000000 </v>
   <v>       0.46153846       0.07692308       0.00000000 </v>
   <v>      -0.46153846       0.07692308       0.00000000 </v>
   <v>      -0.38461538       0.07692308       0.00000000 </v>
   <v>      -0.30769231       0.07692308      -0.00000000 </v>
   <v>      -0.23076923       0.07692308       0.00000000 </v>
   <v>      -0.15384615       0.07692308       0.00000000 </v>
   <v>      -0.07692308       0.07692308       0.00000000 </v>
   <v>       0.15384615       0.15384615       0.00000000 </v>
   <v>       0.23076923       0.15384615       0.00000000 </v>
   <v>       0.30769231       0.15384615       0.00000000 </v>
   <v>       0.38461538       0.15384615       0.00000000 </v>
   <v>       0.46153846       0.15384615       0.00000000 </v>
   <v>      -0.46153846       0.15384615      -0.00000000 </v>
   <v>      -0.38461538       0.15384615       0.00000000 </v>
   <v>      -0.30769231       0.15384615      -0.00000000 </v>
   <v>      -0.23076923       0.15384615      -0.00000000 </v>
   <v>      -0.15384615       0.15384615      -0.00000000 </v>
   <v>       0.23076923       0.23076923       0.00000000 </v>
   <v>       0.30769231       0.23076923       0.00000000 </v>
   <v>       0.38461538       0.23076923       0.00000000 </v>
   <v>       0.46153846       0.23076923       0.00000000 </v>
   <v>      -0.46153846       0.23076923      -0.00000000 </v>
   <v>      -0.38461538       0.23076923       0.00000000 </v>
   <v>      -0.30769231       0.23076923       0.00000000 </v>
   <v>      -0.23076923       0.23076923       0.00000000 </v>
   <v>       0.30769231       0.30769231       0.00000000 </v>
   <v>       0.38461538       0.30769231       0.00000000 </v>
   <v>       0.46153846       0.30769231       0.00000000 </v>
   <v>      -0.46153846       0.30769231       0.00000000 </v>
   <v>      -0.38461538       0.30769231      -0.00000000 </v>
   <v>      -0.30769231       0.30769231      -0.00000000 </v>
   <v>       0.38461538       0.38461538       0.00000000 </v>
   <v>       0.46153846       0.38461538       0.00000000 </v>
   <v>      -0.46153846       0.38461538       0.00000000 </v>
   <v>      -0.38461538       0.38461538      -0.00000000 </v>
   <v>       0.46153846       0.46153846       0.00000000 </v>
   <v>      -0.46153846       0.46153846      -0.00000000 </v>
   <v>       0.23076923       0.15384615       0.07692308 </v>
   <v>       0.30769231       0.15384615       0.07692308 </v>
   <v>       0.38461538       0.15384615       0.07692308 </v>
   <v>       0.46153846       0.15384615       0.07692308 </v>
   <v>      -0.46153846       0.15384615       0.07692308 </v>
   <v>       0.30769231       0.23076923       0.07692308 </v>
   <v>       0.38461538       0.23076923       0.07692308 </v>
   <v>       0.46153846       0.23076923       0.07692308 </v>
   <v>      -0.46153846       0.23076923       0.07692308 </v>
   <v>      -0.38461538       0.23076923       0.07692308 </v>
   <v>      -0.30769231       0.23076923       0.07692308 </v>
   <v>      -0.23076923       0.23076923       0.07692308 </v>
   <v>      -0.15384615       0.23076923       0.07692308 </v>
   <v>       0.38461538       0.30769231       0.07692308 </v>
   <v>       0.46153846       0.30769231       0.07692308 </v>
   <v>      -0.46153846       0.30769231       0.07692308 </v>
   <v>      -0.38461538       0.30769231       0.07692308 </v>
   <v>      -0.30769231       0.30769231       0.07692308 </v>
   <v>      -0.23076923       0.30769231       0.07692308 </v>
   <v>       0.46153846       0.38461538       0.07692308 </v>
   <v>      -0.46153846       0.38461538       0.07692308 </v>
   <v>      -0.38461538       0.38461538       0.07692308 </v>
   <v>      -0.30769231       0.38461538       0.07692308 </v>
   <v>      -0.46153846       0.46153846       0.07692308 </v>
   <v>      -0.38461538       0.46153846       0.07692308 </v>
   <v>       0.46153846       0.30769231       0.15384615 </v>
   <v>      -0.46153846       0.30769231       0.15384615 </v>
   <v>      -0.38461538       0.30769231       0.15384615 </v>
   <v>      -0.46153846       0.38461538       0.15384615 </v>
   <v>      -0.38461538       0.38461538       0.15384615 </v>
   <v>      -0.30769231       0.38461538       0.15384615 </v>
   <v>      -0.23076923       0.38461538       0.15384615 </v>
   <v>      -0.38461538       0.46153846       0.15384615 </v>
   <v>      -0.30769231       0.46153846       0.15384615 </v>
   <v>      -0.30769231       0.46153846       0.23076923 </v>
  </varray>
  <varray name="weights" >
   <v>       0.00045517 </v>
   <v>       0.00364133 </v>
   <v>       0.00364133 </v>
   <v>       0.00364133 </v>
   <v>       0.00364133 </v>
   <v>       0.00364133 </v>
   <v>       0.00364133 </v>
   <v>       0.00273100 </v>
   <v>       0.01092399 </v>
   <v>       0.01092399 </v>
   <v>       0.01092399 </v>
   <v>       0.01092399 </v>
   <v>       0.01092399 </v>
   <v>       0.01092399 </v>
   <v>       0.01092399 </v>
   <v>       0.01092399 </v>
   <v>       0.01092399 </v>
   <v>       0.01092399 </v>
   <v>       0.00546199 </v>
   <v>       0.00273100 </v>
   <v>       0.01092399 </v>
   <v>       0.01092399 </v>
   <v>       0.01092399 </v>
   <v>       0.01092399 </v>
   <v>       0.01092399 </v>
   <v>       0.01092399 </v>
   <v>       0.01092399 </v>
   <v>       0.01092399 </v>
   <v>       0.00546199 </v>
   <v>       0.00273100 </v>
   <v>       0.01092399 </v>
   <v>       0.01092399 </v>
   <v>       0.01092399 </v>
   <v>       0.01092399 </v>
   <v>       0.01092399 </v>
   <v>       0.01092399 </v>
   <v>       0.00546199 </v>
   <v>       0.00273100 </v>
   <v>       0.01092399 </v>
   <v>       0.01092399 </v>
   <v>       0.01092399 </v>
   <v>       0.01092399 </v>
   <v>       0.00546199 </v>
   <v>       0.00273100 </v>
   <v>       0.01092399 </v>
   <v>       0.01092399 </v>
   <v>       0.00546199 </v>
   <v>       0.00273100 </v>
   <v>       0.00546199 </v>
   <v>       0.01092399 </v>
   <v>       0.02184797 </v>
   <v>       0.02184797 </v>
   <v>       0.02184797 </v>
   <v>       0.02184797 </v>
   <v>       0.01092399 </v>
   <v>       0.02184797 </v>
   <v>       0.02184797 </v>
   <v>       0.02184797 </v>
   <v>       0.02184797 </v>
   <v>       0.02184797 </v>
   <v>       0.02184797 </v>
   <v>       0.01092399 </v>
   <v>       0.01092399 </v>
   <v>       0.02184797 </v>
   <v>       0.02184797 </v>
   <v>       0.02184797 </v>
   <v>       0.02184797 </v>
   <v>       0.01092399 </v>
   <v>       0.01092399 </v>
   <v>       0.02184797 </v>
   <v>       0.02184797 </v>
   <v>       0.01092399 </v>
   <v>       0.01092399 </v>
   <v>       0.01092399 </v>
   <v>       0.01092399 </v>
   <v>       0.02184797 </v>
   <v>       0.02184797 </v>
   <v>       0.01092399 </v>
   <v>       0.02184797 </v>
   <v>       0.02184797 </v>
   <v>       0.01092399 </v>
   <v>       0.01092399 </v>
   <v>       0.01092399 </v>
   <v>       0.01092399 </v>
  </varray>
 </kpoints>
 <parameters>
  <separator name="general" >
   <i type="string" name="SYSTEM">unknown system</i>
   <i type="logical" name="LCOMPAT"> F  </i>
  </separator>
  <separator name="electronic" >
   <i type="string" name="PREC">acc</i>
   <i name="ENMAX">    700.00000000</i>
   <i name="ENAUG">    526.41000000</i>
   <i name="EDIFF">      0.00000010</i>
   <i type="int" name="IALGO">    38</i>
   <i type="int" name="IWAVPR">    10</i>
   <i type="int" name="NBANDS">    24</i>
   <i type="int" name="NBANDSLOW">    -1</i>
   <i type="int" name="NBANDSHIGH">    -1</i>
   <i name="NELECT">     39.00000000</i>
   <i type="int" name="TURBO">     0</i>
   <i type="int" name="IRESTART">     0</i>
   <i type="int" name="NREBOOT">     0</i>
   <i type="int" name="NMIN">     0</i>
   <i name="EREF">      0.00000000</i>
   <separator name="electronic smearing" >
    <i type="int" name="ISMEAR">     0</i>
    <i name="SIGMA">      0.01000000</i>
    <i name="KSPACING">      0.50000000</i>
    <i type="logical" name="KGAMMA"> T  </i>
    <i type="logical" name="KBLOWUP"> T  </i>
   </separator>
   <separator name="electronic projectors" >
    <i type="logical" name="LREAL"> F  </i>
    <v name="ROPT">      0.00000000      0.00000000      0.00000000</v>
    <i type="int" name="LMAXPAW">  -100</i>
    <i type="int" name="LMAXMIX">     2</i>
    <i type="logical" name="NLSPLINE"> F  </i>
   </separator>
   <separator name="electronic startup" >
    <i type="int" name="ISTART">     0</i>
    <i type="int" name="ICHARG">     2</i>
    <i type="int" name="INIWAV">     1</i>
   </separator>
   <separator name="electronic spin" >
    <i type="int" name="ISPIN">     1</i>
    <i type="logical" name="LNONCOLLINEAR"> F  </i>
    <v name="MAGMOM">      1.00000000      1.00000000      1.00000000</v>
    <i name="NUPDOWN">     -1.00000000</i>
    <i type="logical" name="LSORBIT"> F  </i>
    <v name="SAXIS">      0.00000000      0.00000000      1.00000000</v>
    <i type="logical" name="LSPIRAL"> F  </i>
    <v name="QSPIRAL">      0.00000000      0.00000000      0.00000000</v>
    <i type="logical" name="LZEROZ"> F  </i>
   </separator>
   <separator name="electronic exchange-correlation" >
    <i type="logical" name="LASPH"> F  </i>
    <i type="logical" name="LMETAGGA"> F  </i>
   </separator>
   <separator name="electronic convergence" >
    <i type="int" name="NELM">    60</i>
    <i type="int" name="NELMDL">    -5</i>
    <i type="int" name="NELMIN">     5</i>
    <i name="ENINI">    700.00000000</i>
    <separator name="electronic convergence detail" >
     <i type="logical" name="LDIAG"> T  </i>
     <i type="logical" name="LSUBROT"> F  </i>
     <i name="WEIMIN">      0.00000000</i>
     <i name="EBREAK">      0.00000000</i>
     <i name="DEPER">      0.30000000</i>
     <i type="int" name="NRMM">     4</i>
     <i name="TIME">      0.40000000</i>
    </separator>
   </separator>
   <separator name="electronic mixer" >
    <i name="AMIX">      0.40000000</i>
    <i name="BMIX">      1.00000000</i>
    <i name="AMIN">      0.10000000</i>
    <i name="AMIX_MAG">      1.60000000</i>
    <i name="BMIX_MAG">      1.00000000</i>
    <separator name="electronic mixer details" >
     <i type="int" name="IMIX">     4</i>
     <i type="logical" name="MIXFIRST"> F  </i>
     <i type="int" name="MAXMIX">   -45</i>
     <i name="WC">    100.00000000</i>
     <i type="int" name="INIMIX">     1</i>
     <i type="int" name="MIXPRE">     1</i>
     <i type="int" name="MREMOVE">     5</i>
    </separator>
   </separator>
   <separator name="electronic dipolcorrection" >
    <i type="logical" name="LDIPOL"> F  </i>
    <i type="logical" name="LMONO"> F  </i>
    <i type="int" name="IDIPOL">     0</i>
    <i name="EPSILON">      1.00000000</i>
    <v name="DIPOL">   -100.00000000   -100.00000000   -100.00000000</v>
    <i name="EFIELD">      0.00000000</i>
   </separator>
  </separator>
  <separator name="grids" >
   <i type="int" name="NGX">    40</i>
   <i type="int" name="NGY">    40</i>
   <i type="int" name="NGZ">    40</i>
   <i type="int" name="NGXF">    80</i>
   <i type="int" name="NGYF">    80</i>
   <i type="int" name="NGZF">    80</i>
   <i type="logical" name="ADDGRID"> T  </i>
  </separator>
  <separator name="ionic" >
   <i type="int" name="NSW">     0</i>
   <i type="int" name="IBRION">    -1</i>
   <i type="int" name="MDALGO">     0</i>
   <i type="int" name="ISIF">     3</i>
   <i name="PSTRESS">      0.00000000</i>
   <i name="EDIFFG">      0.00000100</i>
   <i type="int" name="NFREE">     0</i>
   <i name="POTIM">      0.50000000</i>
   <i name="SMASS">     -3.00000000</i>
   <i name="SCALEE">      1.00000000</i>
  </separator>
  <separator name="ionic md" >
   <i name="TEBEG">      0.00010000</i>
   <i name="TEEND">      0.00010000</i>
   <i type="int" name="NBLOCK">     1</i>
   <i type="int" name="KBLOCK">     1</i>
   <i type="int" name="NPACO">   256</i>
   <i name="APACO">     16.00000000</i>
  </separator>
  <separator name="symmetry" >
   <i type="int" name="ISYM">     2</i>
   <i name="SYMPREC">      0.00001000</i>
  </separator>
  <separator name="dos" >
   <i type="int" name="LORBIT">     0</i>
   <v name="RWIGS">     -1.00000000     -1.00000000     -1.00000000</v>
   <i type="int" name="NEDOS">   301</i>
   <i name="EMIN">     10.00000000</i>
   <i name="EMAX">    -10.00000000</i>
   <i name="EFERMI">      0.00000000</i>
  </separator>
  <separator name="writing" >
   <i type="int" name="NWRITE">     2</i>
   <i type="logical" name="LWAVE"> F  </i>
   <i type="logical" name="LDOWNSAMPLE"> F  </i>
   <i type="logical" name="LCHARG"> F  </i>
   <i type="logical" name="LPARD"> F  </i>
   <i type="logical" name="LVTOT"> F  </i>
   <i type="logical" name="LVHAR"> F  </i>
   <i type="logical" name="LELF"> F  </i>
   <i type="logical" name="LOPTICS"> F  </i>
   <v name="STM">      0.00000000      0.00000000      0.00000000      0.00000000      0.00000000      0.00000000      0.00000000</v>
  </separator>
  <separator name="performance" >
   <i type="int" name="NPAR">     4</i>
   <i type="int" name="NSIM">     4</i>
   <i type="int" name="NBLK">    -1</i>
   <i type="logical" name="LPLANE"> T  </i>
   <i type="logical" name="LSCALAPACK"> T  </i>
   <i type="logical" name="LSCAAWARE"> F  </i>
   <i type="logical" name="LSCALU"> F  </i>
   <i type="logical" name="LASYNC"> F  </i>
   <i type="logical" name="LORBITALREAL"> F  </i>
  </separator>
  <separator name="miscellaneous" >
   <i type="int" name="IDIOT">     3</i>
   <i type="int" name="PHON_NSTRUCT">    -1</i>
   <i type="logical" name="LMUSIC"> F  </i>
   <v name="POMASS">    238.02900000    208.98000000    195.08000000</v>
   <v name="DARWINR">      0.00000000      0.00000000      0.00000000</v>
   <v name="DARWINV">      1.00000000      1.00000000      1.00000000</v>
   <i type="logical" name="LCORR"> T  </i>
  </separator>
  <i type="logical" name="GGA_COMPAT"> T  </i>
  <i type="logical" name="LBERRY"> F  </i>
  <i type="int" name="ICORELEVEL">     0</i>
  <i type="logical" name="LDAU"> F  </i>
  <i type="int" name="I_CONSTRAINED_M">     0</i>
  <separator name="electronic exchange-correlation" >
   <i type="string" name="GGA">PS</i>
   <i type="int" name="VOSKOWN">     0</i>
   <i type="logical" name="LHFCALC"> F  </i>
   <i type="string" name="PRECFOCK"></i>
   <i type="logical" name="LSYMGRAD"> F  </i>
   <i type="logical" name="LHFONE"> F  </i>
   <i type="logical" name="LRHFCALC"> F  </i>
   <i type="logical" name="LTHOMAS"> F  </i>
   <i type="logical" name="LMODELHF"> F  </i>
   <i type="logical" name="LFOCKACE"> F  </i>
   <i name="ENCUT4O">     -1.00000000</i>
   <i type="int" name="EXXOEP">     0</i>
   <i type="int" name="FOURORBIT">     0</i>
   <i name="AEXX">      0.00000000</i>
   <i name="HFALPHA">      0.00000000</i>
   <i name="MCALPHA">      0.00000000</i>
   <i name="ALDAX">      1.00000000</i>
   <i name="AGGAX">      1.00000000</i>
   <i name="ALDAC">      1.00000000</i>
   <i name="AGGAC">      1.00000000</i>
   <i type="int" name="NKREDX">     1</i>
   <i type="int" name="NKREDY">     1</i>
   <i type="int" name="NKREDZ">     1</i>
   <i type="logical" name="SHIFTRED"> F  </i>
   <i type="logical" name="ODDONLY"> F  </i>
   <i type="logical" name="EVENONLY"> F  </i>
   <i type="int" name="LMAXFOCK">     0</i>
   <i type="int" name="NMAXFOCKAE">     0</i>
   <i type="logical" name="LFOCKAEDFT"> F  </i>
   <i name="HFSCREEN">      0.00000000</i>
   <i name="HFSCREENC">      0.00000000</i>
   <i type="int" name="NBANDSGWLOW">     0</i>
  </separator>
  <separator name="vdW DFT" >
   <i type="logical" name="LUSE_VDW"> F  </i>
   <i name="Zab_VDW">     -0.84910000</i>
   <i name="PARAM1">      0.12340000</i>
   <i name="PARAM2">      1.00000000</i>
   <i name="PARAM3">      0.00000000</i>
  </separator>
  <separator name="model GW" >
   <i type="int" name="MODEL_GW">     0</i>
   <i name="MODEL_EPS0">     14.31443581</i>
   <i name="MODEL_ALPHA">      1.00000000</i>
  </separator>
  <separator name="linear response parameters" >
   <i type="logical" name="LEPSILON"> F  </i>
   <i type="logical" name="LRPA"> F  </i>
   <i type="logical" name="LNABLA"> F  </i>
   <i type="logical" name="LVEL"> F  </i>
   <i type="int" name="KINTER">     0</i>
   <i name="CSHIFT">      0.10000000</i>
   <i name="OMEGAMAX">     -1.00000000</i>
   <i name="DEG_THRESHOLD">      0.00200000</i>
   <i name="RTIME">     -0.10000000</i>
   <i name="WPLASMAI">      0.00000000</i>
   <v name="DFIELD">      0.00000000      0.00000000      0.00000000</v>
   <v name="WPLASMA">      0.00000000      0.00000000      0.00000000      0.00000000      0.00000000      0.00000000      0.00000000      0.00000000      0.00000000</v>
  </separator>
  <separator name="orbital magnetization" >
   <i type="logical" name="NUCIND"> F  </i>
   <v name="MAGPOS">      0.00000000      0.00000000      0.00000000</v>
   <i type="logical" name="LNICSALL"> T  </i>
   <i type="logical" name="ORBITALMAG"> F  </i>
   <i type="logical" name="LMAGBLOCH"> F  </i>
   <i type="logical" name="LCHIMAG"> F  </i>
   <i type="logical" name="LGAUGE"> T  </i>
   <i type="int" name="MAGATOM">     0</i>
   <v name="MAGDIPOL">      0.00000000      0.00000000      0.00000000</v>
   <v name="AVECCONST">      0.00000000      0.00000000      0.00000000</v>
  </separator>
  <separator name="response functions" >
   <i type="logical" name="LFINITE_TEMPERATURE"> F  </i>
   <i type="logical" name="LADDER"> F  </i>
   <i type="logical" name="LRPAFORCE"> F  </i>
   <i type="logical" name="LFXC"> F  </i>
   <i type="logical" name="LHARTREE"> T  </i>
   <i type="int" name="IBSE">     0</i>
   <v type="int" name="KPOINT">    -1     0     0     0</v>
   <i type="logical" name="LTCTC"> F  </i>
   <i type="logical" name="LTCTE"> F  </i>
   <i type="logical" name="LTETE"> F  </i>
   <i type="logical" name="LTRIPLET"> F  </i>
   <i type="logical" name="LFXCEPS"> F  </i>
   <i type="logical" name="LFXHEG"> F  </i>
   <i type="int" name="NATURALO">     2</i>
   <i type="logical" name="L2ORDER"> F  </i>
   <i type="logical" name="LDMP1"> F  </i>
   <i type="logical" name="LMP2LT"> F  </i>
   <i type="logical" name="LSMP2LT"> F  </i>
   <i type="logical" name="LUSEW"> F  </i>
   <i name="ENCUTGW">     -2.00000000</i>
   <i name="ENCUTGWSOFT">     -2.00000000</i>
   <i name="ENCUTLF">     -1.00000000</i>
   <i type="int" name="LMAXMP2">    -1</i>
   <i name="SCISSOR">      0.00000000</i>
   <i type="int" name="NOMEGA">     0</i>
   <i type="int" name="NOMEGAR">     0</i>
   <i type="int" name="NBANDSGW">    -1</i>
   <i type="int" name="NBANDSO">    -1</i>
   <i type="int" name="NBANDSV">    -1</i>
   <i type="int" name="NELM">     1</i>
   <i type="int" name="NELMHF">     1</i>
   <i type="int" name="DIM">     3</i>
   <i type="int" name="IESPILON">     4</i>
   <i type="int" name="ANTIRES">     0</i>
   <i name="OMEGAMAX">    -30.00000000</i>
   <i name="OMEGAMIN">    -30.00000000</i>
   <i name="OMEGATL">   -200.00000000</i>
   <i type="int" name="OMEGAGRID">   145</i>
   <i name="CSHIFT">     -0.10000000</i>
   <i type="logical" name="LSELFENERGY"> F  </i>
   <i type="logical" name="LSPECTRAL"> F  </i>
   <i type="logical" name="LSPECTRALGW"> F  </i>
   <i type="logical" name="LSINGLES"> F  </i>
   <i type="logical" name="LFERMIGW"> F  </i>
   <i type="logical" name="ODDONLYGW"> F  </i>
   <i type="logical" name="EVENONLYGW"> F  </i>
   <i type="int" name="NKREDLFX">     1</i>
   <i type="int" name="NKREDLFY">     1</i>
   <i type="int" name="NKREDLFZ">     1</i>
   <i type="int" name="MAXMEM">  2800</i>
   <i type="int" name="TELESCOPE">     0</i>
   <i type="int" name="NTAUPAR">     1</i>
   <i type="int" name="NOMEGAPAR">    -1</i>
   <i name="LAMBDA">      1.00000000</i>
  </separator>
  <separator name="External order field" >
   <i name="OFIELD_KAPPA">      0.00000000</i>
   <v name="OFIELD_K">      0.00000000      0.00000000      0.00000000</v>
   <i name="OFIELD_Q6_NEAR">      0.00000000</i>
   <i name="OFIELD_Q6_FAR">      0.00000000</i>
   <i name="OFIELD_A">      0.00000000</i>
  </separator>
 </parameters>
 <atominfo>
  <atoms>       3 </atoms>
  <types>       3 </types>
  <array name="atoms" >
   <dimension dim="1">ion</dimension>
   <field type="string">element</field>
   <field type="int">atomtype</field>
   <set>
    <rc><c>U </c><c>   1</c></rc>
    <rc><c>Bi</c><c>   2</c></rc>
    <rc><c>Pt</c><c>   3</c></rc>
   </set>
  </array>
  <array name="atomtypes" >
   <dimension dim="1">type</dimension>
   <field type="int">atomspertype</field>
   <field type="string">element</field>
   <field>mass</field>
   <field>valence</field>
   <field type="string">pseudopotential</field>
   <set>
    <rc><c>   1</c><c>U </c><c>    238.02900000</c><c>     14.00000000</c><c>  PAW_PBE U 06Sep2000                   </c></rc>
    <rc><c>   1</c><c>Bi</c><c>    208.98000000</c><c>     15.00000000</c><c>  PAW_PBE Bi_d 06Sep2000                </c></rc>
    <rc><c>   1</c><c>Pt</c><c>    195.08000000</c><c>     10.00000000</c><c>  PAW_PBE Pt 04Feb2005                  </c></rc>
   </set>
  </array>
 </atominfo>
 <structure name="initialpos" >
  <crystal>
   <varray name="basis" >
    <v>       0.00000000       3.29537428       3.29537428 </v>
    <v>       3.29537428       0.00000000       3.29537428 </v>
    <v>       3.29537428       3.29537428       0.00000000 </v>
   </varray>
   <i name="volume">     71.57217906 </i>
   <varray name="rec_basis" >
    <v>      -0.15172783       0.15172783       0.15172783 </v>
    <v>       0.15172783      -0.15172783       0.15172783 </v>
    <v>       0.15172783       0.15172783      -0.15172783 </v>
   </varray>
  </crystal>
  <varray name="positions" >
   <v>       0.25000000       0.25000000       0.25000000 </v>
   <v>       0.75000000       0.75000000       0.75000000 </v>
   <v>       0.00000000       0.00000000       0.00000000 </v>
  </varray>
 </structure>
 <calculation>
  <scstep>
   <time name="dav">    1.45    1.48</time>
   <time name="total">    1.59    1.75</time>
   <energy>
    <i name="alphaZ">    219.70526648 </i>
    <i name="ewald">  -3617.58899574 </i>
    <i name="hartreedc">   -773.72158176 </i>
    <i name="XCdc">     90.59294901 </i>
    <i name="pawpsdc">   3513.29252893 </i>
    <i name="pawaedc">  -3436.88002192 </i>
    <i name="eentropy">     -0.00004483 </i>
    <i name="bandstr">    340.30172965 </i>
    <i name="atom">   4095.35208632 </i>
    <i name="e_fr_energy">    431.05391614 </i>
    <i name="e_wo_entrp">    431.05396097 </i>
    <i name="e_0_energy">    431.05393856 </i>
   </energy>
  </scstep>
  <scstep>
   <time name="dav">    1.55    1.58</time>
   <time name="total">    1.55    1.59</time>
   <energy>
    <i name="e_fr_energy">     29.03613203 </i>
    <i name="e_wo_entrp">     29.03652608 </i>
    <i name="e_0_energy">     29.03632905 </i>
   </energy>
  </scstep>
  <scstep>
   <time name="dav">    1.71    1.73</time>
   <time name="total">    1.71    1.74</time>
   <energy>
    <i name="e_fr_energy">    -20.83584350 </i>
    <i name="e_wo_entrp">    -20.83501382 </i>
    <i name="e_0_energy">    -20.83542866 </i>
   </energy>
  </scstep>
  <scstep>
   <time name="dav">    2.33    2.35</time>
   <time name="total">    2.33    2.35</time>
   <energy>
    <i name="e_fr_energy">    -25.93848014 </i>
    <i name="e_wo_entrp">    -25.93745156 </i>
    <i name="e_0_energy">    -25.93796585 </i>
   </energy>
  </scstep>
  <scstep>
   <time name="dav">    1.81    1.85</time>
   <time name="total">    2.15    2.18</time>
   <energy>
    <i name="e_fr_energy">    -26.11206876 </i>
    <i name="e_wo_entrp">    -26.11117536 </i>
    <i name="e_0_energy">    -26.11162206 </i>
   </energy>
  </scstep>
  <scstep>
   <time name="dav">    1.93    1.93</time>
   <time name="total">    2.34    2.37</time>
   <energy>
    <i name="e_fr_energy">    -32.96386734 </i>
    <i name="e_wo_entrp">    -32.96372192 </i>
    <i name="e_0_energy">    -32.96379463 </i>
   </energy>
  </scstep>
  <scstep>
   <time name="dav">    1.90    1.90</time>
   <time name="total">    2.29    2.32</time>
   <energy>
    <i name="e_fr_energy">    -24.55442498 </i>
    <i name="e_wo_entrp">    -24.55350014 </i>
    <i name="e_0_energy">    -24.55396256 </i>
   </energy>
  </scstep>
  <scstep>
   <time name="dav">    1.87    1.87</time>
   <time name="total">    2.28    2.30</time>
   <energy>
    <i name="e_fr_energy">    -24.48877589 </i>
    <i name="e_wo_entrp">    -24.48757396 </i>
    <i name="e_0_energy">    -24.48817492 </i>
   </energy>
  </scstep>
  <scstep>
   <time name="dav">    1.94    1.94</time>
   <time name="total">    2.34    2.36</time>
   <energy>
    <i name="e_fr_energy">    -23.75407820 </i>
    <i name="e_wo_entrp">    -23.75283906 </i>
    <i name="e_0_energy">    -23.75345863 </i>
   </energy>
  </scstep>
  <scstep>
   <time name="dav">    2.10    2.10</time>
   <time name="total">    2.51    2.56</time>
   <energy>
    <i name="e_fr_energy">    -23.78182547 </i>
    <i name="e_wo_entrp">    -23.78048162 </i>
    <i name="e_0_energy">    -23.78115354 </i>
   </energy>
  </scstep>
  <scstep>
   <time name="dav">    1.91    1.91</time>
   <time name="total">    2.30    2.34</time>
   <energy>
    <i name="e_fr_energy">    -23.75600849 </i>
    <i name="e_wo_entrp">    -23.75443292 </i>
    <i name="e_0_energy">    -23.75522071 </i>
   </energy>
  </scstep>
  <scstep>
   <time name="dav">    2.08    2.08</time>
   <time name="total">    2.48    2.51</time>
   <energy>
    <i name="e_fr_energy">    -23.75650136 </i>
    <i name="e_wo_entrp">    -23.75489272 </i>
    <i name="e_0_energy">    -23.75569704 </i>
   </energy>
  </scstep>
  <scstep>
   <time name="dav">    1.93    1.93</time>
   <time name="total">    2.33    2.36</time>
   <energy>
    <i name="e_fr_energy">    -23.75641648 </i>
    <i name="e_wo_entrp">    -23.75482377 </i>
    <i name="e_0_energy">    -23.75562013 </i>
   </energy>
  </scstep>
  <scstep>
   <time name="dav">    2.22    2.22</time>
   <time name="total">    2.64    2.68</time>
   <energy>
    <i name="e_fr_energy">    -23.75642856 </i>
    <i name="e_wo_entrp">    -23.75482818 </i>
    <i name="e_0_energy">    -23.75562837 </i>
   </energy>
  </scstep>
  <scstep>
   <time name="dav">    1.99    1.99</time>
   <time name="total">    2.38    2.42</time>
   <energy>
    <i name="e_fr_energy">    -23.75641798 </i>
    <i name="e_wo_entrp">    -23.75482210 </i>
    <i name="e_0_energy">    -23.75562004 </i>
   </energy>
  </scstep>
  <scstep>
   <time name="dav">    2.23    2.23</time>
   <time name="total">    2.63    2.69</time>
   <energy>
    <i name="e_fr_energy">    -23.75641753 </i>
    <i name="e_wo_entrp">    -23.75482398 </i>
    <i name="e_0_energy">    -23.75562076 </i>
   </energy>
  </scstep>
  <scstep>
   <time name="dav">    1.57    1.57</time>
   <time name="total">    1.71    1.74</time>
   <energy>
    <i name="alphaZ">    219.70526648 </i>
    <i name="ewald">  -3617.58899574 </i>
    <i name="hartreedc">   -759.48471006 </i>
    <i name="XCdc">     90.17297950 </i>
    <i name="pawpsdc">   4260.98531935 </i>
    <i name="pawaedc">  -4194.32547805 </i>
    <i name="eentropy">     -0.00159362 </i>
    <i name="bandstr">   -118.57129163 </i>
    <i name="atom">   4095.35208632 </i>
    <i name="e_fr_energy">    -23.75641746 </i>
    <i name="e_wo_entrp">    -23.75482384 </i>
    <i name="e_0_energy">    -23.75562065 </i>
   </energy>
  </scstep>
  <structure>
   <crystal>
    <varray name="basis" >
     <v>       0.00000000       3.29537428       3.29537428 </v>
     <v>       3.29537428       0.00000000       3.29537428 </v>
     <v>       3.29537428       3.29537428       0.00000000 </v>
    </varray>
    <i name="volume">     71.57217906 </i>
    <varray name="rec_basis" >
     <v>      -0.15172783       0.15172783       0.15172783 </v>
     <v>       0.15172783      -0.15172783       0.15172783 </v>
     <v>       0.15172783       0.15172783      -0.15172783 </v>
    </varray>
   </crystal>
   <varray name="positions" >
    <v>       0.25000000       0.25000000       0.25000000 </v>
    <v>       0.75000000       0.75000000       0.75000000 </v>
    <v>       0.00000000       0.00000000       0.00000000 </v>
   </varray>
  </structure>
  <varray name="forces" >
   <v>      -0.00000000       0.00000000      -0.00000000 </v>
   <v>      -0.00000000       0.00000000      -0.00000000 </v>
   <v>       0.00000000      -0.00000000       0.00000000 </v>
  </varray>
  <varray name="stress" >
   <v>      25.58126615       0.00000000       0.00000000 </v>
   <v>      -0.00000000      25.58126615      -0.00000000 </v>
   <v>       0.00000000       0.00000000      25.58126615 </v>
  </varray>
  <energy>
   <i name="e_fr_energy">    -23.75641746 </i>
   <i name="e_wo_entrp">    -23.75562065 </i>
   <i name="e_0_energy">     -0.00159362 </i>
  </energy>
  <time name="totalsc">   41.12   42.36</time>
  <eigenvalues>
   <array>
    <dimension dim="1">band</dimension>
    <dimension dim="2">kpoint</dimension>
    <dimension dim="3">spin</dimension>
    <field>eigene</field>
    <field>occ</field>
    <set>
     <set comment="spin 1">
      <set comment="kpoint 1">
       <r>  -33.7306    1.0000 </r>
       <r>  -12.5843    1.0000 </r>
       <r>  -12.5843    1.0000 </r>
       <r>  -12.5544    1.0000 </r>
       <r>  -12.5544    1.0000 </r>
       <r>  -12.5544    1.0000 </r>
       <r>   -9.0423    1.0000 </r>
       <r>   -9.0423    1.0000 </r>
       <r>   -9.0423    1.0000 </r>
       <r>   -2.2838    1.0000 </r>
       <r>    5.6539    1.0000 </r>
       <r>    5.6539    1.0000 </r>
       <r>    5.6539    1.0000 </r>
       <r>    5.8848    1.0000 </r>
       <r>    5.8848    1.0000 </r>
       <r>    8.8274    1.0000 </r>
       <r>    9.1563    1.0000 </r>
       <r>    9.1563    1.0000 </r>
       <r>    9.1563    1.0000 </r>
       <r>   10.3089    1.0000 </r>
       <r>   10.3089    1.0000 </r>
       <r>   10.3089    1.0000 </r>
       <r>   10.5431    0.0000 </r>
       <r>   10.6274    0.0000 </r>
      </set>
      <set comment="kpoint 2">
       <r>  -33.7303    1.0000 </r>
       <r>  -12.5862    1.0000 </r>
       <r>  -12.5862    1.0000 </r>
       <r>  -12.5547    1.0000 </r>
       <r>  -12.5542    1.0000 </r>
       <r>  -12.5542    1.0000 </r>
       <r>   -9.0587    1.0000 </r>
       <r>   -9.0383    1.0000 </r>
       <r>   -9.0383    1.0000 </r>
       <r>   -2.2112    1.0000 </r>
       <r>    5.5202    1.0000 </r>
       <r>    5.5202    1.0000 </r>
       <r>    5.5279    1.0000 </r>
       <r>    6.0103    1.0000 </r>
       <r>    6.0103    1.0000 </r>
       <r>    8.3505    1.0000 </r>
       <r>    9.0954    1.0000 </r>
       <r>    9.0954    1.0000 </r>
       <r>    9.4533    1.0000 </r>
       <r>   10.3057    1.0000 </r>
       <r>   10.3057    1.0000 </r>
       <r>   10.3073    1.0000 </r>
       <r>   10.6755    0.0000 </r>
       <r>   10.6978    0.0000 </r>
      </set>
      <set comment="kpoint 3">
       <r>  -33.7294    1.0000 </r>
       <r>  -12.5913    1.0000 </r>
       <r>  -12.5913    1.0000 </r>
       <r>  -12.5558    1.0000 </r>
       <r>  -12.5535    1.0000 </r>
       <r>  -12.5535    1.0000 </r>
       <r>   -9.1024    1.0000 </r>
       <r>   -9.0272    1.0000 </r>
       <r>   -9.0272    1.0000 </r>
       <r>   -2.0090    1.0000 </r>
       <r>    5.2049    1.0000 </r>
       <r>    5.3415    1.0000 </r>
       <r>    5.3415    1.0000 </r>
       <r>    6.1536    1.0000 </r>
       <r>    6.1536    1.0000 </r>
       <r>    7.7214    1.0000 </r>
       <r>    8.9658    1.0000 </r>
       <r>    8.9658    1.0000 </r>
       <r>    9.5272    1.0000 </r>
       <r>   10.3100    1.0000 </r>
       <r>   10.3100    1.0000 </r>
       <r>   10.5351    0.0000 </r>
       <r>   10.6321    0.0000 </r>
       <r>   10.8389    0.0000 </r>
      </set>
      <set comment="kpoint 4">
       <r>  -33.7282    1.0000 </r>
       <r>  -12.5984    1.0000 </r>
       <r>  -12.5984    1.0000 </r>
       <r>  -12.5574    1.0000 </r>
       <r>  -12.5526    1.0000 </r>
       <r>  -12.5526    1.0000 </r>
       <r>   -9.1599    1.0000 </r>
       <r>   -9.0117    1.0000 </r>
       <r>   -9.0117    1.0000 </r>
       <r>   -1.7204    1.0000 </r>
       <r>    4.7994    1.0000 </r>
       <r>    5.2073    1.0000 </r>
       <r>    5.2073    1.0000 </r>
       <r>    6.2053    1.0000 </r>
       <r>    6.2053    1.0000 </r>
       <r>    7.1505    1.0000 </r>
       <r>    8.8564    1.0000 </r>
       <r>    8.8564    1.0000 </r>
       <r>    9.5156    1.0000 </r>
       <r>   10.3299    1.0000 </r>
       <r>   10.3299    1.0000 </r>
       <r>   10.6866    0.0000 </r>
       <r>   10.9180    0.0000 </r>
       <r>   10.9221    0.0000 </r>
      </set>
      <set comment="kpoint 5">
       <r>  -33.7270    1.0000 </r>
       <r>  -12.6060    1.0000 </r>
       <r>  -12.6060    1.0000 </r>
       <r>  -12.5596    1.0000 </r>
       <r>  -12.5515    1.0000 </r>
       <r>  -12.5515    1.0000 </r>
       <r>   -9.2160    1.0000 </r>
       <r>   -8.9953    1.0000 </r>
       <r>   -8.9953    1.0000 </r>
       <r>   -1.4087    1.0000 </r>
       <r>    4.4162    1.0000 </r>
       <r>    5.1335    1.0000 </r>
       <r>    5.1335    1.0000 </r>
       <r>    6.1526    1.0000 </r>
       <r>    6.1526    1.0000 </r>
       <r>    6.7007    1.0000 </r>
       <r>    8.8104    1.0000 </r>
       <r>    8.8104    1.0000 </r>
       <r>    9.5509    1.0000 </r>
       <r>   10.3652    0.8506 </r>
       <r>   10.3652    0.8506 </r>
       <r>   10.6420    0.0000 </r>
       <r>   10.7620    0.0000 </r>
       <r>   10.8955    0.0000 </r>
      </set>
      <set comment="kpoint 6">
       <r>  -33.7259    1.0000 </r>
       <r>  -12.6123    1.0000 </r>
       <r>  -12.6123    1.0000 </r>
       <r>  -12.5616    1.0000 </r>
       <r>  -12.5506    1.0000 </r>
       <r>  -12.5506    1.0000 </r>
       <r>   -9.2590    1.0000 </r>
       <r>   -8.9818    1.0000 </r>
       <r>   -8.9818    1.0000 </r>
       <r>   -1.1454    1.0000 </r>
       <r>    4.1280    1.0000 </r>
       <r>    5.1142    1.0000 </r>
       <r>    5.1142    1.0000 </r>
       <r>    6.0423    1.0000 </r>
       <r>    6.0423    1.0000 </r>
       <r>    6.3973    1.0000 </r>
       <r>    8.8127    1.0000 </r>
       <r>    8.8127    1.0000 </r>
       <r>    9.6269    1.0000 </r>
       <r>   10.4128    0.0000 </r>
       <r>   10.4128    0.0000 </r>
       <r>   10.6463    0.0000 </r>
       <r>   10.8135    0.0000 </r>
       <r>   10.8135    0.0000 </r>
      </set>
      <set comment="kpoint 7">
       <r>  -33.7253    1.0000 </r>
       <r>  -12.6158    1.0000 </r>
       <r>  -12.6158    1.0000 </r>
       <r>  -12.5629    1.0000 </r>
       <r>  -12.5500    1.0000 </r>
       <r>  -12.5500    1.0000 </r>
       <r>   -9.2820    1.0000 </r>
       <r>   -8.9743    1.0000 </r>
       <r>   -8.9743    1.0000 </r>
       <r>   -0.9948    1.0000 </r>
       <r>    3.9759    1.0000 </r>
       <r>    5.1224    1.0000 </r>
       <r>    5.1224    1.0000 </r>
       <r>    5.9535    1.0000 </r>
       <r>    5.9535    1.0000 </r>
       <r>    6.2460    1.0000 </r>
       <r>    8.8260    1.0000 </r>
       <r>    8.8260    1.0000 </r>
       <r>    9.6938    1.0000 </r>
       <r>   10.4565    0.0000 </r>
       <r>   10.4565    0.0000 </r>
       <r>   10.7420    0.0000 </r>
       <r>   10.7429    0.0000 </r>
       <r>   10.8168    0.0000 </r>
      </set>
      <set comment="kpoint 8">
       <r>  -33.7302    1.0000 </r>
       <r>  -12.5893    1.0000 </r>
       <r>  -12.5839    1.0000 </r>
       <r>  -12.5549    1.0000 </r>
       <r>  -12.5541    1.0000 </r>
       <r>  -12.5541    1.0000 </r>
       <r>   -9.0508    1.0000 </r>
       <r>   -9.0438    1.0000 </r>
       <r>   -9.0438    1.0000 </r>
       <r>   -2.1887    1.0000 </r>
       <r>    5.2516    1.0000 </r>
       <r>    5.6673    1.0000 </r>
       <r>    5.6673    1.0000 </r>
       <r>    5.8990    1.0000 </r>
       <r>    6.0612    1.0000 </r>
       <r>    8.3325    1.0000 </r>
       <r>    8.9966    1.0000 </r>
       <r>    8.9966    1.0000 </r>
       <r>    9.6123    1.0000 </r>
       <r>   10.2214    1.0000 </r>
       <r>   10.3310    1.0000 </r>
       <r>   10.3310    1.0000 </r>
       <r>   10.6388    0.0000 </r>
       <r>   10.7061    0.0000 </r>
      </set>
      <set comment="kpoint 9">
       <r>  -33.7295    1.0000 </r>
       <r>  -12.5950    1.0000 </r>
       <r>  -12.5854    1.0000 </r>
       <r>  -12.5557    1.0000 </r>
       <r>  -12.5536    1.0000 </r>
       <r>  -12.5535    1.0000 </r>
       <r>   -9.0842    1.0000 </r>
       <r>   -9.0412    1.0000 </r>
       <r>   -9.0312    1.0000 </r>
       <r>   -2.0348    1.0000 </r>
       <r>    4.9646    1.0000 </r>
       <r>    5.5462    1.0000 </r>
       <r>    5.5659    1.0000 </r>
       <r>    6.0069    1.0000 </r>
       <r>    6.1697    1.0000 </r>
       <r>    7.9070    1.0000 </r>
       <r>    8.8560    1.0000 </r>
       <r>    8.8560    1.0000 </r>
       <r>    9.7042    1.0000 </r>
       <r>   10.2749    1.0000 </r>
       <r>   10.3382    1.0000 </r>
       <r>   10.4505    0.0000 </r>
       <r>   10.6449    0.0000 </r>
       <r>   10.8134    0.0000 </r>
      </set>
      <set comment="kpoint 10">
       <r>  -33.7284    1.0000 </r>
       <r>  -12.6017    1.0000 </r>
       <r>  -12.5903    1.0000 </r>
       <r>  -12.5570    1.0000 </r>
       <r>  -12.5529    1.0000 </r>
       <r>  -12.5525    1.0000 </r>
       <r>   -9.1375    1.0000 </r>
       <r>   -9.0311    1.0000 </r>
       <r>   -9.0140    1.0000 </r>
       <r>   -1.7838    1.0000 </r>
       <r>    4.6826    1.0000 </r>
       <r>    5.3103    1.0000 </r>
       <r>    5.4313    1.0000 </r>
       <r>    6.0891    1.0000 </r>
       <r>    6.2622    1.0000 </r>
       <r>    7.3758    1.0000 </r>
       <r>    8.7149    1.0000 </r>
       <r>    8.7559    1.0000 </r>
       <r>    9.6783    1.0000 </r>
       <r>   10.3089    1.0000 </r>
       <r>   10.3453    0.9999 </r>
       <r>   10.6387    0.0000 </r>
       <r>   10.6481    0.0000 </r>
       <r>   10.8926    0.0000 </r>
      </set>
      <set comment="kpoint 11">
       <r>  -33.7272    1.0000 </r>
       <r>  -12.6081    1.0000 </r>
       <r>  -12.5975    1.0000 </r>
       <r>  -12.5588    1.0000 </r>
       <r>  -12.5521    1.0000 </r>
       <r>  -12.5513    1.0000 </r>
       <r>   -9.1940    1.0000 </r>
       <r>   -9.0159    1.0000 </r>
       <r>   -8.9983    1.0000 </r>
       <r>   -1.4925    1.0000 </r>
       <r>    4.4147    1.0000 </r>
       <r>    5.1253    1.0000 </r>
       <r>    5.3325    1.0000 </r>
       <r>    6.0697    1.0000 </r>
       <r>    6.2658    1.0000 </r>
       <r>    6.8934    1.0000 </r>
       <r>    8.6384    1.0000 </r>
       <r>    8.7297    1.0000 </r>
       <r>    9.6642    1.0000 </r>
       <r>   10.3540    0.9956 </r>
       <r>   10.3649    0.8617 </r>
       <r>   10.6508    0.0000 </r>
       <r>   10.7206    0.0000 </r>
       <r>   10.8891    0.0000 </r>
      </set>
      <set comment="kpoint 12">
       <r>  -33.7261    1.0000 </r>
       <r>  -12.6127    1.0000 </r>
       <r>  -12.6052    1.0000 </r>
       <r>  -12.5607    1.0000 </r>
       <r>  -12.5513    1.0000 </r>
       <r>  -12.5504    1.0000 </r>
       <r>   -9.2409    1.0000 </r>
       <r>   -8.9991    1.0000 </r>
       <r>   -8.9874    1.0000 </r>
       <r>   -1.2277    1.0000 </r>
       <r>    4.1937    1.0000 </r>
       <r>    5.0465    1.0000 </r>
       <r>    5.2633    1.0000 </r>
       <r>    5.9937    1.0000 </r>
       <r>    6.1845    1.0000 </r>
       <r>    6.5283    1.0000 </r>
       <r>    8.6268    1.0000 </r>
       <r>    8.7520    1.0000 </r>
       <r>    9.6948    1.0000 </r>
       <r>   10.4011    0.0000 </r>
       <r>   10.4067    0.0000 </r>
       <r>   10.6515    0.0000 </r>
       <r>   10.7550    0.0000 </r>
       <r>   10.8463    0.0000 </r>
      </set>
      <set comment="kpoint 13">
       <r>  -33.7253    1.0000 </r>
       <r>  -12.6145    1.0000 </r>
       <r>  -12.6117    1.0000 </r>
       <r>  -12.5621    1.0000 </r>
       <r>  -12.5506    1.0000 </r>
       <r>  -12.5498    1.0000 </r>
       <r>   -9.2700    1.0000 </r>
       <r>   -8.9845    1.0000 </r>
       <r>   -8.9838    1.0000 </r>
       <r>   -1.0511    1.0000 </r>
       <r>    4.0576    1.0000 </r>
       <r>    5.0627    1.0000 </r>
       <r>    5.1920    1.0000 </r>
       <r>    5.9503    1.0000 </r>
       <r>    6.0674    1.0000 </r>
       <r>    6.3105    1.0000 </r>
       <r>    8.6422    1.0000 </r>
       <r>    8.7789    1.0000 </r>
       <r>    9.7483    1.0000 </r>
       <r>   10.4492    0.0000 </r>
       <r>   10.4518    0.0000 </r>
       <r>   10.6466    0.0000 </r>
       <r>   10.7338    0.0000 </r>
       <r>   10.8023    0.0000 </r>
      </set>
      <set comment="kpoint 14">
       <r>  -33.7251    1.0000 </r>
       <r>  -12.6154    1.0000 </r>
       <r>  -12.6131    1.0000 </r>
       <r>  -12.5625    1.0000 </r>
       <r>  -12.5503    1.0000 </r>
       <r>  -12.5498    1.0000 </r>
       <r>   -9.2773    1.0000 </r>
       <r>   -8.9880    1.0000 </r>
       <r>   -8.9753    1.0000 </r>
       <r>   -1.0027    1.0000 </r>
       <r>    4.0223    1.0000 </r>
       <r>    5.1008    1.0000 </r>
       <r>    5.1377    1.0000 </r>
       <r>    5.9742    1.0000 </r>
       <r>    5.9974    1.0000 </r>
       <r>    6.2571    1.0000 </r>
       <r>    8.6428    1.0000 </r>
       <r>    8.7877    1.0000 </r>
       <r>    9.7710    1.0000 </r>
       <r>   10.4558    0.0000 </r>
       <r>   10.4815    0.0000 </r>
       <r>   10.6372    0.0000 </r>
       <r>   10.7402    0.0000 </r>
       <r>   10.7711    0.0000 </r>
      </set>
      <set comment="kpoint 15">
       <r>  -33.7255    1.0000 </r>
       <r>  -12.6157    1.0000 </r>
       <r>  -12.6088    1.0000 </r>
       <r>  -12.5616    1.0000 </r>
       <r>  -12.5505    1.0000 </r>
       <r>  -12.5504    1.0000 </r>
       <r>   -9.2621    1.0000 </r>
       <r>   -8.9991    1.0000 </r>
       <r>   -8.9737    1.0000 </r>
       <r>   -1.0937    1.0000 </r>
       <r>    4.0941    1.0000 </r>
       <r>    5.0186    1.0000 </r>
       <r>    5.2300    1.0000 </r>
       <r>    5.9545    1.0000 </r>
       <r>    6.1153    1.0000 </r>
       <r>    6.3688    1.0000 </r>
       <r>    8.6059    1.0000 </r>
       <r>    8.7850    1.0000 </r>
       <r>    9.7380    1.0000 </r>
       <r>   10.4187    0.0000 </r>
       <r>   10.4554    0.0000 </r>
       <r>   10.6427    0.0000 </r>
       <r>   10.7694    0.0000 </r>
       <r>   10.7873    0.0000 </r>
      </set>
      <set comment="kpoint 16">
       <r>  -33.7264    1.0000 </r>
       <r>  -12.6125    1.0000 </r>
       <r>  -12.6024    1.0000 </r>
       <r>  -12.5599    1.0000 </r>
       <r>  -12.5512    1.0000 </r>
       <r>  -12.5511    1.0000 </r>
       <r>   -9.2263    1.0000 </r>
       <r>   -9.0143    1.0000 </r>
       <r>   -8.9801    1.0000 </r>
       <r>   -1.3041    1.0000 </r>
       <r>    4.2779    1.0000 </r>
       <r>    4.9842    1.0000 </r>
       <r>    5.3233    1.0000 </r>
       <r>    6.0060    1.0000 </r>
       <r>    6.2430    1.0000 </r>
       <r>    6.6358    1.0000 </r>
       <r>    8.5413    1.0000 </r>
       <r>    8.7988    1.0000 </r>
       <r>    9.6875    1.0000 </r>
       <r>   10.3782    0.2126 </r>
       <r>   10.3997    0.0001 </r>
       <r>   10.6477    0.0000 </r>
       <r>   10.7661    0.0000 </r>
       <r>   10.8353    0.0000 </r>
      </set>
      <set comment="kpoint 17">
       <r>  -33.7276    1.0000 </r>
       <r>  -12.6064    1.0000 </r>
       <r>  -12.5955    1.0000 </r>
       <r>  -12.5580    1.0000 </r>
       <r>  -12.5523    1.0000 </r>
       <r>  -12.5520    1.0000 </r>
       <r>   -9.1757    1.0000 </r>
       <r>   -9.0301    1.0000 </r>
       <r>   -8.9929    1.0000 </r>
       <r>   -1.5854    1.0000 </r>
       <r>    4.5620    1.0000 </r>
       <r>    5.0199    1.0000 </r>
       <r>    5.4375    1.0000 </r>
       <r>    6.0572    1.0000 </r>
       <r>    6.3155    1.0000 </r>
       <r>    7.0417    1.0000 </r>
       <r>    8.4982    1.0000 </r>
       <r>    8.8612    1.0000 </r>
       <r>    9.6647    1.0000 </r>
       <r>   10.3464    0.9999 </r>
       <r>   10.3501    0.9993 </r>
       <r>   10.6459    0.0000 </r>
       <r>   10.7087    0.0000 </r>
       <r>   10.8933    0.0000 </r>
      </set>
      <set comment="kpoint 18">
       <r>  -33.7288    1.0000 </r>
       <r>  -12.5989    1.0000 </r>
       <r>  -12.5897    1.0000 </r>
       <r>  -12.5564    1.0000 </r>
       <r>  -12.5532    1.0000 </r>
       <r>  -12.5530    1.0000 </r>
       <r>   -9.1205    1.0000 </r>
       <r>   -9.0423    1.0000 </r>
       <r>   -9.0095    1.0000 </r>
       <r>   -1.8717    1.0000 </r>
       <r>    4.9038    1.0000 </r>
       <r>    5.1308    1.0000 </r>
       <r>    5.5842    1.0000 </r>
       <r>    6.0326    1.0000 </r>
       <r>    6.2920    1.0000 </r>
       <r>    7.5419    1.0000 </r>
       <r>    8.5566    1.0000 </r>
       <r>    8.9742    1.0000 </r>
       <r>    9.6759    1.0000 </r>
       <r>   10.3053    1.0000 </r>
       <r>   10.3332    1.0000 </r>
       <r>   10.6090    0.0000 </r>
       <r>   10.6414    0.0000 </r>
       <r>   10.8911    0.0000 </r>
      </set>
      <set comment="kpoint 19">
       <r>  -33.7298    1.0000 </r>
       <r>  -12.5916    1.0000 </r>
       <r>  -12.5863    1.0000 </r>
       <r>  -12.5553    1.0000 </r>
       <r>  -12.5539    1.0000 </r>
       <r>  -12.5537    1.0000 </r>
       <r>   -9.0768    1.0000 </r>
       <r>   -9.0457    1.0000 </r>
       <r>   -9.0259    1.0000 </r>
       <r>   -2.0972    1.0000 </r>
       <r>    5.2424    1.0000 </r>
       <r>    5.3073    1.0000 </r>
       <r>    5.6791    1.0000 </r>
       <r>    5.9647    1.0000 </r>
       <r>    6.1765    1.0000 </r>
       <r>    8.0233    1.0000 </r>
       <r>    8.7936    1.0000 </r>
       <r>    9.0810    1.0000 </r>
       <r>    9.6407    1.0000 </r>
       <r>   10.2879    1.0000 </r>
       <r>   10.3107    1.0000 </r>
       <r>   10.4250    0.0000 </r>
       <r>   10.6352    0.0000 </r>
       <r>   10.7849    0.0000 </r>
      </set>
      <set comment="kpoint 20">
       <r>  -33.7290    1.0000 </r>
       <r>  -12.5998    1.0000 </r>
       <r>  -12.5826    1.0000 </r>
       <r>  -12.5566    1.0000 </r>
       <r>  -12.5530    1.0000 </r>
       <r>  -12.5530    1.0000 </r>
       <r>   -9.0757    1.0000 </r>
       <r>   -9.0482    1.0000 </r>
       <r>   -9.0482    1.0000 </r>
       <r>   -1.9439    1.0000 </r>
       <r>    4.6593    1.0000 </r>
       <r>    5.6918    1.0000 </r>
       <r>    5.6918    1.0000 </r>
       <r>    5.9389    1.0000 </r>
       <r>    6.1114    1.0000 </r>
       <r>    7.8724    1.0000 </r>
       <r>    8.7176    1.0000 </r>
       <r>    8.7176    1.0000 </r>
       <r>    9.7399    1.0000 </r>
       <r>   10.3565    0.9886 </r>
       <r>   10.3565    0.9886 </r>
       <r>   10.3925    0.0024 </r>
       <r>   10.6732    0.0000 </r>
       <r>   10.8677    0.0000 </r>
      </set>
      <set comment="kpoint 21">
       <r>  -33.7282    1.0000 </r>
       <r>  -12.6045    1.0000 </r>
       <r>  -12.5839    1.0000 </r>
       <r>  -12.5577    1.0000 </r>
       <r>  -12.5524    1.0000 </r>
       <r>  -12.5521    1.0000 </r>
       <r>   -9.1152    1.0000 </r>
       <r>   -9.0466    1.0000 </r>
       <r>   -9.0359    1.0000 </r>
       <r>   -1.7608    1.0000 </r>
       <r>    4.4153    1.0000 </r>
       <r>    5.5578    1.0000 </r>
       <r>    5.6263    1.0000 </r>
       <r>    6.0020    1.0000 </r>
       <r>    6.1649    1.0000 </r>
       <r>    7.5841    1.0000 </r>
       <r>    8.5447    1.0000 </r>
       <r>    8.6278    1.0000 </r>
       <r>    9.7657    1.0000 </r>
       <r>   10.3260    1.0000 </r>
       <r>   10.3654    0.8454 </r>
       <r>   10.5640    0.0000 </r>
       <r>   10.6867    0.0000 </r>
       <r>   10.9144    0.0000 </r>
      </set>
      <set comment="kpoint 22">
       <r>  -33.7271    1.0000 </r>
       <r>  -12.6082    1.0000 </r>
       <r>  -12.5888    1.0000 </r>
       <r>  -12.5589    1.0000 </r>
       <r>  -12.5519    1.0000 </r>
       <r>  -12.5509    1.0000 </r>
       <r>   -9.1677    1.0000 </r>
       <r>   -9.0369    1.0000 </r>
       <r>   -9.0207    1.0000 </r>
       <r>   -1.5320    1.0000 </r>
       <r>    4.2608    1.0000 </r>
       <r>    5.3203    1.0000 </r>
       <r>    5.5274    1.0000 </r>
       <r>    6.0176    1.0000 </r>
       <r>    6.2375    1.0000 </r>
       <r>    7.1823    1.0000 </r>
       <r>    8.3756    1.0000 </r>
       <r>    8.6164    1.0000 </r>
       <r>    9.8015    1.0000 </r>
       <r>   10.3451    0.9999 </r>
       <r>   10.3790    0.1824 </r>
       <r>   10.6520    0.0000 </r>
       <r>   10.6881    0.0000 </r>
       <r>   10.9125    0.0000 </r>
      </set>
      <set comment="kpoint 23">
       <r>  -33.7260    1.0000 </r>
       <r>  -12.6099    1.0000 </r>
       <r>  -12.5961    1.0000 </r>
       <r>  -12.5601    1.0000 </r>
       <r>  -12.5516    1.0000 </r>
       <r>  -12.5499    1.0000 </r>
       <r>   -9.2142    1.0000 </r>
       <r>   -9.0214    1.0000 </r>
       <r>   -9.0123    1.0000 </r>
       <r>   -1.3129    1.0000 </r>
       <r>    4.2008    1.0000 </r>
       <r>    5.1362    1.0000 </r>
       <r>    5.4230    1.0000 </r>
       <r>    5.9866    1.0000 </r>
       <r>    6.2398    1.0000 </r>
       <r>    6.7864    1.0000 </r>
       <r>    8.2938    1.0000 </r>
       <r>    8.6525    1.0000 </r>
       <r>    9.8190    1.0000 </r>
       <r>   10.3953    0.0006 </r>
       <r>   10.4067    0.0000 </r>
       <r>   10.6824    0.0000 </r>
       <r>   10.6860    0.0000 </r>
       <r>   10.8813    0.0000 </r>
      </set>
      <set comment="kpoint 24">
       <r>  -33.7252    1.0000 </r>
       <r>  -12.6094    1.0000 </r>
       <r>  -12.6041    1.0000 </r>
       <r>  -12.5610    1.0000 </r>
       <r>  -12.5514    1.0000 </r>
       <r>  -12.5493    1.0000 </r>
       <r>   -9.2455    1.0000 </r>
       <r>   -9.0128    1.0000 </r>
       <r>   -9.0036    1.0000 </r>
       <r>   -1.1508    1.0000 </r>
       <r>    4.2046    1.0000 </r>
       <r>    5.0594    1.0000 </r>
       <r>    5.2886    1.0000 </r>
       <r>    5.9908    1.0000 </r>
       <r>    6.1723    1.0000 </r>
       <r>    6.4937    1.0000 </r>
       <r>    8.2709    1.0000 </r>
       <r>    8.6852    1.0000 </r>
       <r>    9.8503    1.0000 </r>
       <r>   10.4379    0.0000 </r>
       <r>   10.4515    0.0000 </r>
       <r>   10.6672    0.0000 </r>
       <r>   10.7033    0.0000 </r>
       <r>   10.8571    0.0000 </r>
      </set>
      <set comment="kpoint 25">
       <r>  -33.7248    1.0000 </r>
       <r>  -12.6108    1.0000 </r>
       <r>  -12.6069    1.0000 </r>
       <r>  -12.5612    1.0000 </r>
       <r>  -12.5514    1.0000 </r>
       <r>  -12.5493    1.0000 </r>
       <r>   -9.2572    1.0000 </r>
       <r>   -9.0214    1.0000 </r>
       <r>   -8.9874    1.0000 </r>
       <r>   -1.0743    1.0000 </r>
       <r>    4.2141    1.0000 </r>
       <r>    5.0986    1.0000 </r>
       <r>    5.1319    1.0000 </r>
       <r>    6.0678    1.0000 </r>
       <r>    6.0704    1.0000 </r>
       <r>    6.3747    1.0000 </r>
       <r>    8.2529    1.0000 </r>
       <r>    8.6920    1.0000 </r>
       <r>    9.8821    1.0000 </r>
       <r>   10.4407    0.0000 </r>
       <r>   10.5042    0.0000 </r>
       <r>   10.6357    0.0000 </r>
       <r>   10.7338    0.0000 </r>
       <r>   10.8272    0.0000 </r>
      </set>
      <set comment="kpoint 26">
       <r>  -33.7250    1.0000 </r>
       <r>  -12.6149    1.0000 </r>
       <r>  -12.6029    1.0000 </r>
       <r>  -12.5605    1.0000 </r>
       <r>  -12.5515    1.0000 </r>
       <r>  -12.5498    1.0000 </r>
       <r>   -9.2485    1.0000 </r>
       <r>   -9.0355    1.0000 </r>
       <r>   -8.9767    1.0000 </r>
       <r>   -1.0961    1.0000 </r>
       <r>    4.2065    1.0000 </r>
       <r>    4.9937    1.0000 </r>
       <r>    5.2244    1.0000 </r>
       <r>    5.9892    1.0000 </r>
       <r>    6.1935    1.0000 </r>
       <r>    6.4507    1.0000 </r>
       <r>    8.1958    1.0000 </r>
       <r>    8.6868    1.0000 </r>
       <r>    9.8821    1.0000 </r>
       <r>   10.4099    0.0000 </r>
       <r>   10.5182    0.0000 </r>
       <r>   10.6194    0.0000 </r>
       <r>   10.7675    0.0000 </r>
       <r>   10.7772    0.0000 </r>
      </set>
      <set comment="kpoint 27">
       <r>  -33.7257    1.0000 </r>
       <r>  -12.6155    1.0000 </r>
       <r>  -12.5982    1.0000 </r>
       <r>  -12.5593    1.0000 </r>
       <r>  -12.5517    1.0000 </r>
       <r>  -12.5506    1.0000 </r>
       <r>   -9.2220    1.0000 </r>
       <r>   -9.0506    1.0000 </r>
       <r>   -8.9737    1.0000 </r>
       <r>   -1.2169    1.0000 </r>
       <r>    4.2314    1.0000 </r>
       <r>    4.9101    1.0000 </r>
       <r>    5.3915    1.0000 </r>
       <r>    5.9557    1.0000 </r>
       <r>    6.3189    1.0000 </r>
       <r>    6.6935    1.0000 </r>
       <r>    8.0942    1.0000 </r>
       <r>    8.7037    1.0000 </r>
       <r>    9.8537    1.0000 </r>
       <r>   10.3788    0.1885 </r>
       <r>   10.4642    0.0000 </r>
       <r>   10.6454    0.0000 </r>
       <r>   10.7565    0.0000 </r>
       <r>   10.7965    0.0000 </r>
      </set>
      <set comment="kpoint 28">
       <r>  -33.7267    1.0000 </r>
       <r>  -12.6125    1.0000 </r>
       <r>  -12.5938    1.0000 </r>
       <r>  -12.5581    1.0000 </r>
       <r>  -12.5520    1.0000 </r>
       <r>  -12.5517    1.0000 </r>
       <r>   -9.1839    1.0000 </r>
       <r>   -9.0609    1.0000 </r>
       <r>   -8.9792    1.0000 </r>
       <r>   -1.4185    1.0000 </r>
       <r>    4.3529    1.0000 </r>
       <r>    4.9023    1.0000 </r>
       <r>    5.5634    1.0000 </r>
       <r>    5.9477    1.0000 </r>
       <r>    6.3919    1.0000 </r>
       <r>    7.0437    1.0000 </r>
       <r>    8.0097    1.0000 </r>
       <r>    8.7724    1.0000 </r>
       <r>    9.8209    1.0000 </r>
       <r>   10.3602    0.9603 </r>
       <r>   10.3992    0.0001 </r>
       <r>   10.6568    0.0000 </r>
       <r>   10.7224    0.0000 </r>
       <r>   10.8459    0.0000 </r>
      </set>
      <set comment="kpoint 29">
       <r>  -33.7278    1.0000 </r>
       <r>  -12.6065    1.0000 </r>
       <r>  -12.5906    1.0000 </r>
       <r>  -12.5572    1.0000 </r>
       <r>  -12.5526    1.0000 </r>
       <r>  -12.5524    1.0000 </r>
       <r>   -9.1462    1.0000 </r>
       <r>   -9.0590    1.0000 </r>
       <r>   -8.9922    1.0000 </r>
       <r>   -1.6567    1.0000 </r>
       <r>    4.5887    1.0000 </r>
       <r>    4.9776    1.0000 </r>
       <r>    5.6857    1.0000 </r>
       <r>    5.9375    1.0000 </r>
       <r>    6.3813    1.0000 </r>
       <r>    7.3645    1.0000 </r>
       <r>    8.1224    1.0000 </r>
       <r>    8.8842    1.0000 </r>
       <r>    9.7812    1.0000 </r>
       <r>   10.3410    1.0000 </r>
       <r>   10.3486    0.9997 </r>
       <r>   10.6531    0.0000 </r>
       <r>   10.6747    0.0000 </r>
       <r>   10.8898    0.0000 </r>
      </set>
      <set comment="kpoint 30">
       <r>  -33.7275    1.0000 </r>
       <r>  -12.6060    1.0000 </r>
       <r>  -12.5809    1.0000 </r>
       <r>  -12.5590    1.0000 </r>
       <r>  -12.5513    1.0000 </r>
       <r>  -12.5513    1.0000 </r>
       <r>   -9.1145    1.0000 </r>
       <r>   -9.0548    1.0000 </r>
       <r>   -9.0548    1.0000 </r>
       <r>   -1.6639    1.0000 </r>
       <r>    4.2251    1.0000 </r>
       <r>    5.6914    1.0000 </r>
       <r>    5.6914    1.0000 </r>
       <r>    5.9965    1.0000 </r>
       <r>    6.0053    1.0000 </r>
       <r>    7.5505    1.0000 </r>
       <r>    8.5472    1.0000 </r>
       <r>    8.5472    1.0000 </r>
       <r>    9.7165    1.0000 </r>
       <r>   10.3790    0.1821 </r>
       <r>   10.3790    0.1821 </r>
       <r>   10.5251    0.0000 </r>
       <r>   10.7300    0.0000 </r>
       <r>   10.9842    0.0000 </r>
      </set>
      <set comment="kpoint 31">
       <r>  -33.7266    1.0000 </r>
       <r>  -12.6060    1.0000 </r>
       <r>  -12.5821    1.0000 </r>
       <r>  -12.5602    1.0000 </r>
       <r>  -12.5506    1.0000 </r>
       <r>  -12.5503    1.0000 </r>
       <r>   -9.1508    1.0000 </r>
       <r>   -9.0537    1.0000 </r>
       <r>   -9.0492    1.0000 </r>
       <r>   -1.5253    1.0000 </r>
       <r>    4.1592    1.0000 </r>
       <r>    5.5242    1.0000 </r>
       <r>    5.6394    1.0000 </r>
       <r>    6.0230    1.0000 </r>
       <r>    6.0497    1.0000 </r>
       <r>    7.3399    1.0000 </r>
       <r>    8.3934    1.0000 </r>
       <r>    8.5457    1.0000 </r>
       <r>    9.8087    1.0000 </r>
       <r>   10.3644    0.8750 </r>
       <r>   10.3927    0.0022 </r>
       <r>   10.5744    0.0000 </r>
       <r>   10.7497    0.0000 </r>
       <r>   10.9748    0.0000 </r>
      </set>
      <set comment="kpoint 32">
       <r>  -33.7257    1.0000 </r>
       <r>  -12.6043    1.0000 </r>
       <r>  -12.5871    1.0000 </r>
       <r>  -12.5609    1.0000 </r>
       <r>  -12.5505    1.0000 </r>
       <r>  -12.5492    1.0000 </r>
       <r>   -9.1912    1.0000 </r>
       <r>   -9.0444    1.0000 </r>
       <r>   -9.0437    1.0000 </r>
       <r>   -1.3829    1.0000 </r>
       <r>    4.2239    1.0000 </r>
       <r>    5.2936    1.0000 </r>
       <r>    5.5366    1.0000 </r>
       <r>    6.0279    1.0000 </r>
       <r>    6.1388    1.0000 </r>
       <r>    7.0424    1.0000 </r>
       <r>    8.1616    1.0000 </r>
       <r>    8.5892    1.0000 </r>
       <r>    9.9079    1.0000 </r>
       <r>   10.3770    0.2637 </r>
       <r>   10.4158    0.0000 </r>
       <r>   10.6149    0.0000 </r>
       <r>   10.7458    0.0000 </r>
       <r>   10.9291    0.0000 </r>
      </set>
      <set comment="kpoint 33">
       <r>  -33.7249    1.0000 </r>
       <r>  -12.6016    1.0000 </r>
       <r>  -12.5946    1.0000 </r>
       <r>  -12.5610    1.0000 </r>
       <r>  -12.5510    1.0000 </r>
       <r>  -12.5485    1.0000 </r>
       <r>   -9.2191    1.0000 </r>
       <r>   -9.0494    1.0000 </r>
       <r>   -9.0271    1.0000 </r>
       <r>   -1.2652    1.0000 </r>
       <r>    4.3768    1.0000 </r>
       <r>    5.1361    1.0000 </r>
       <r>    5.3852    1.0000 </r>
       <r>    6.0585    1.0000 </r>
       <r>    6.1647    1.0000 </r>
       <r>    6.7441    1.0000 </r>
       <r>    7.9881    1.0000 </r>
       <r>    8.6186    1.0000 </r>
       <r>    9.9505    1.0000 </r>
       <r>   10.4113    0.0000 </r>
       <r>   10.4535    0.0000 </r>
       <r>   10.6562    0.0000 </r>
       <r>   10.7237    0.0000 </r>
       <r>   10.8809    0.0000 </r>
      </set>
      <set comment="kpoint 34">
       <r>  -33.7245    1.0000 </r>
       <r>  -12.6028    1.0000 </r>
       <r>  -12.5985    1.0000 </r>
       <r>  -12.5603    1.0000 </r>
       <r>  -12.5519    1.0000 </r>
       <r>  -12.5484    1.0000 </r>
       <r>   -9.2291    1.0000 </r>
       <r>   -9.0635    1.0000 </r>
       <r>   -9.0077    1.0000 </r>
       <r>   -1.1863    1.0000 </r>
       <r>    4.5075    1.0000 </r>
       <r>    5.0813    1.0000 </r>
       <r>    5.2056    1.0000 </r>
       <r>    6.1078    1.0000 </r>
       <r>    6.1399    1.0000 </r>
       <r>    6.5802    1.0000 </r>
       <r>    7.8721    1.0000 </r>
       <r>    8.6104    1.0000 </r>
       <r>    9.9801    1.0000 </r>
       <r>   10.4132    0.0000 </r>
       <r>   10.5039    0.0000 </r>
       <r>   10.6803    0.0000 </r>
       <r>   10.7174    0.0000 </r>
       <r>   10.8441    0.0000 </r>
      </set>
      <set comment="kpoint 35">
       <r>  -33.7245    1.0000 </r>
       <r>  -12.6100    1.0000 </r>
       <r>  -12.5959    1.0000 </r>
       <r>  -12.5589    1.0000 </r>
       <r>  -12.5529    1.0000 </r>
       <r>  -12.5489    1.0000 </r>
       <r>   -9.2220    1.0000 </r>
       <r>   -9.0817    1.0000 </r>
       <r>   -8.9899    1.0000 </r>
       <r>   -1.1537    1.0000 </r>
       <r>    4.4852    1.0000 </r>
       <r>    5.0380    1.0000 </r>
       <r>    5.1444    1.0000 </r>
       <r>    6.0313    1.0000 </r>
       <r>    6.2524    1.0000 </r>
       <r>    6.6259    1.0000 </r>
       <r>    7.7725    1.0000 </r>
       <r>    8.5877    1.0000 </r>
       <r>    9.9951    1.0000 </r>
       <r>   10.3835    0.0612 </r>
       <r>   10.5553    0.0000 </r>
       <r>   10.6217    0.0000 </r>
       <r>   10.7571    0.0000 </r>
       <r>   10.8253    0.0000 </r>
      </set>
      <set comment="kpoint 36">
       <r>  -33.7250    1.0000 </r>
       <r>  -12.6145    1.0000 </r>
       <r>  -12.5941    1.0000 </r>
       <r>  -12.5578    1.0000 </r>
       <r>  -12.5532    1.0000 </r>
       <r>  -12.5498    1.0000 </r>
       <r>   -9.2047    1.0000 </r>
       <r>   -9.0944    1.0000 </r>
       <r>   -8.9776    1.0000 </r>
       <r>   -1.1785    1.0000 </r>
       <r>    4.3576    1.0000 </r>
       <r>    4.9177    1.0000 </r>
       <r>    5.2902    1.0000 </r>
       <r>    5.9866    1.0000 </r>
       <r>    6.3559    1.0000 </r>
       <r>    6.8336    1.0000 </r>
       <r>    7.6711    1.0000 </r>
       <r>    8.5943    1.0000 </r>
       <r>    9.9747    1.0000 </r>
       <r>   10.3596    0.9667 </r>
       <r>   10.5365    0.0000 </r>
       <r>   10.6213    0.0000 </r>
       <r>   10.7512    0.0000 </r>
       <r>   10.7966    0.0000 </r>
      </set>
      <set comment="kpoint 37">
       <r>  -33.7258    1.0000 </r>
       <r>  -12.6154    1.0000 </r>
       <r>  -12.5933    1.0000 </r>
       <r>  -12.5578    1.0000 </r>
       <r>  -12.5526    1.0000 </r>
       <r>  -12.5508    1.0000 </r>
       <r>   -9.1904    1.0000 </r>
       <r>   -9.0880    1.0000 </r>
       <r>   -8.9737    1.0000 </r>
       <r>   -1.2701    1.0000 </r>
       <r>    4.2836    1.0000 </r>
       <r>    4.8684    1.0000 </r>
       <r>    5.4613    1.0000 </r>
       <r>    5.9553    1.0000 </r>
       <r>    6.4089    1.0000 </r>
       <r>    7.0347    1.0000 </r>
       <r>    7.6825    1.0000 </r>
       <r>    8.6609    1.0000 </r>
       <r>    9.9158    1.0000 </r>
       <r>   10.3578    0.9818 </r>
       <r>   10.4680    0.0000 </r>
       <r>   10.6515    0.0000 </r>
       <r>   10.7365    0.0000 </r>
       <r>   10.8064    0.0000 </r>
      </set>
      <set comment="kpoint 38">
       <r>  -33.7259    1.0000 </r>
       <r>  -12.6020    1.0000 </r>
       <r>  -12.5790    1.0000 </r>
       <r>  -12.5616    1.0000 </r>
       <r>  -12.5493    1.0000 </r>
       <r>  -12.5493    1.0000 </r>
       <r>   -9.1613    1.0000 </r>
       <r>   -9.0623    1.0000 </r>
       <r>   -9.0623    1.0000 </r>
       <r>   -1.4856    1.0000 </r>
       <r>    4.1844    1.0000 </r>
       <r>    5.6453    1.0000 </r>
       <r>    5.6453    1.0000 </r>
       <r>    5.8266    1.0000 </r>
       <r>    6.0596    1.0000 </r>
       <r>    7.2433    1.0000 </r>
       <r>    8.5543    1.0000 </r>
       <r>    8.5543    1.0000 </r>
       <r>    9.7961    1.0000 </r>
       <r>   10.4064    0.0000 </r>
       <r>   10.4064    0.0000 </r>
       <r>   10.5175    0.0000 </r>
       <r>   10.8060    0.0000 </r>
       <r>   11.0668    0.0000 </r>
      </set>
      <set comment="kpoint 39">
       <r>  -33.7252    1.0000 </r>
       <r>  -12.5971    1.0000 </r>
       <r>  -12.5804    1.0000 </r>
       <r>  -12.5625    1.0000 </r>
       <r>  -12.5487    1.0000 </r>
       <r>  -12.5483    1.0000 </r>
       <r>   -9.1885    1.0000 </r>
       <r>   -9.0644    1.0000 </r>
       <r>   -9.0608    1.0000 </r>
       <r>   -1.4299    1.0000 </r>
       <r>    4.3433    1.0000 </r>
       <r>    5.4509    1.0000 </r>
       <r>    5.5835    1.0000 </r>
       <r>    5.9049    1.0000 </r>
       <r>    6.0824    1.0000 </r>
       <r>    7.0309    1.0000 </r>
       <r>    8.4241    1.0000 </r>
       <r>    8.6077    1.0000 </r>
       <r>    9.9372    1.0000 </r>
       <r>   10.3896    0.0082 </r>
       <r>   10.4259    0.0000 </r>
       <r>   10.5409    0.0000 </r>
       <r>   10.8279    0.0000 </r>
       <r>   11.0018    0.0000 </r>
      </set>
      <set comment="kpoint 40">
       <r>  -33.7245    1.0000 </r>
       <r>  -12.5925    1.0000 </r>
       <r>  -12.5856    1.0000 </r>
       <r>  -12.5625    1.0000 </r>
       <r>  -12.5491    1.0000 </r>
       <r>  -12.5476    1.0000 </r>
       <r>   -9.2081    1.0000 </r>
       <r>   -9.0736    1.0000 </r>
       <r>   -9.0497    1.0000 </r>
       <r>   -1.3688    1.0000 </r>
       <r>    4.5912    1.0000 </r>
       <r>    5.2528    1.0000 </r>
       <r>    5.4643    1.0000 </r>
       <r>    6.0252    1.0000 </r>
       <r>    6.1161    1.0000 </r>
       <r>    6.7857    1.0000 </r>
       <r>    8.1069    1.0000 </r>
       <r>    8.6349    1.0000 </r>
       <r>   10.0481    1.0000 </r>
       <r>   10.3863    0.0261 </r>
       <r>   10.4559    0.0000 </r>
       <r>   10.5999    0.0000 </r>
       <r>   10.8137    0.0000 </r>
       <r>   10.9135    0.0000 </r>
      </set>
      <set comment="kpoint 41">
       <r>  -33.7242    1.0000 </r>
       <r>  -12.5934    1.0000 </r>
       <r>  -12.5896    1.0000 </r>
       <r>  -12.5614    1.0000 </r>
       <r>  -12.5505    1.0000 </r>
       <r>  -12.5475    1.0000 </r>
       <r>   -9.2101    1.0000 </r>
       <r>   -9.0940    1.0000 </r>
       <r>   -9.0315    1.0000 </r>
       <r>   -1.3055    1.0000 </r>
       <r>    4.8202    1.0000 </r>
       <r>    5.1339    1.0000 </r>
       <r>    5.3039    1.0000 </r>
       <r>    6.0671    1.0000 </r>
       <r>    6.1833    1.0000 </r>
       <r>    6.6322    1.0000 </r>
       <r>    7.7838    1.0000 </r>
       <r>    8.6058    1.0000 </r>
       <r>   10.0768    1.0000 </r>
       <r>   10.3877    0.0161 </r>
       <r>   10.4951    0.0000 </r>
       <r>   10.6870    0.0000 </r>
       <r>   10.7622    0.0000 </r>
       <r>   10.8418    0.0000 </r>
      </set>
      <set comment="kpoint 42">
       <r>  -33.7241    1.0000 </r>
       <r>  -12.6021    1.0000 </r>
       <r>  -12.5891    1.0000 </r>
       <r>  -12.5591    1.0000 </r>
       <r>  -12.5527    1.0000 </r>
       <r>  -12.5480    1.0000 </r>
       <r>   -9.1956    1.0000 </r>
       <r>   -9.1204    1.0000 </r>
       <r>   -9.0103    1.0000 </r>
       <r>   -1.2431    1.0000 </r>
       <r>    4.8595    1.0000 </r>
       <r>    5.0829    1.0000 </r>
       <r>    5.1375    1.0000 </r>
       <r>    6.0287    1.0000 </r>
       <r>    6.2686    1.0000 </r>
       <r>    6.7046    1.0000 </r>
       <r>    7.5386    1.0000 </r>
       <r>    8.5540    1.0000 </r>
       <r>   10.0808    1.0000 </r>
       <r>   10.3629    0.9139 </r>
       <r>   10.5377    0.0000 </r>
       <r>   10.6872    0.0000 </r>
       <r>   10.7492    0.0000 </r>
       <r>   10.8271    0.0000 </r>
      </set>
      <set comment="kpoint 43">
       <r>  -33.7244    1.0000 </r>
       <r>  -12.6096    1.0000 </r>
       <r>  -12.5909    1.0000 </r>
       <r>  -12.5567    1.0000 </r>
       <r>  -12.5546    1.0000 </r>
       <r>  -12.5488    1.0000 </r>
       <r>   -9.1862    1.0000 </r>
       <r>   -9.1282    1.0000 </r>
       <r>   -8.9908    1.0000 </r>
       <r>   -1.1935    1.0000 </r>
       <r>    4.6201    1.0000 </r>
       <r>    4.9996    1.0000 </r>
       <r>    5.1612    1.0000 </r>
       <r>    6.0088    1.0000 </r>
       <r>    6.3368    1.0000 </r>
       <r>    6.8701    1.0000 </r>
       <r>    7.4441    1.0000 </r>
       <r>    8.5382    1.0000 </r>
       <r>   10.0532    1.0000 </r>
       <r>   10.3448    1.0000 </r>
       <r>   10.5749    0.0000 </r>
       <r>   10.6175    0.0000 </r>
       <r>   10.7522    0.0000 </r>
       <r>   10.8269    0.0000 </r>
      </set>
      <set comment="kpoint 44">
       <r>  -33.7247    1.0000 </r>
       <r>  -12.5899    1.0000 </r>
       <r>  -12.5775    1.0000 </r>
       <r>  -12.5637    1.0000 </r>
       <r>  -12.5474    1.0000 </r>
       <r>  -12.5474    1.0000 </r>
       <r>   -9.2053    1.0000 </r>
       <r>   -9.0689    1.0000 </r>
       <r>   -9.0689    1.0000 </r>
       <r>   -1.4509    1.0000 </r>
       <r>    4.5722    1.0000 </r>
       <r>    5.5767    1.0000 </r>
       <r>    5.5767    1.0000 </r>
       <r>    5.6636    1.0000 </r>
       <r>    6.1135    1.0000 </r>
       <r>    6.8313    1.0000 </r>
       <r>    8.6800    1.0000 </r>
       <r>    8.6800    1.0000 </r>
       <r>    9.9878    1.0000 </r>
       <r>   10.4403    0.0000 </r>
       <r>   10.4403    0.0000 </r>
       <r>   10.4754    0.0000 </r>
       <r>   10.8886    0.0000 </r>
       <r>   11.0638    0.0000 </r>
      </set>
      <set comment="kpoint 45">
       <r>  -33.7242    1.0000 </r>
       <r>  -12.5845    1.0000 </r>
       <r>  -12.5791    1.0000 </r>
       <r>  -12.5641    1.0000 </r>
       <r>  -12.5472    1.0000 </r>
       <r>  -12.5468    1.0000 </r>
       <r>   -9.2194    1.0000 </r>
       <r>   -9.0755    1.0000 </r>
       <r>   -9.0662    1.0000 </r>
       <r>   -1.4431    1.0000 </r>
       <r>    4.8630    1.0000 </r>
       <r>    5.3903    1.0000 </r>
       <r>    5.5165    1.0000 </r>
       <r>    5.7926    1.0000 </r>
       <r>    6.1392    1.0000 </r>
       <r>    6.5776    1.0000 </r>
       <r>    8.5389    1.0000 </r>
       <r>    8.7221    1.0000 </r>
       <r>   10.1310    1.0000 </r>
       <r>   10.3971    0.0003 </r>
       <r>   10.4609    0.0000 </r>
       <r>   10.5376    0.0000 </r>
       <r>   10.9071    0.0000 </r>
       <r>   10.9202    0.0000 </r>
      </set>
      <set comment="kpoint 46">
       <r>  -33.7239    1.0000 </r>
       <r>  -12.5847    1.0000 </r>
       <r>  -12.5823    1.0000 </r>
       <r>  -12.5634    1.0000 </r>
       <r>  -12.5484    1.0000 </r>
       <r>  -12.5467    1.0000 </r>
       <r>   -9.2174    1.0000 </r>
       <r>   -9.0933    1.0000 </r>
       <r>   -9.0533    1.0000 </r>
       <r>   -1.4037    1.0000 </r>
       <r>    5.0584    1.0000 </r>
       <r>    5.2900    1.0000 </r>
       <r>    5.4061    1.0000 </r>
       <r>    5.9397    1.0000 </r>
       <r>    6.1842    1.0000 </r>
       <r>    6.3993    1.0000 </r>
       <r>    8.1382    1.0000 </r>
       <r>    8.6841    1.0000 </r>
       <r>   10.1764    1.0000 </r>
       <r>   10.3762    0.3067 </r>
       <r>   10.4864    0.0000 </r>
       <r>   10.6535    0.0000 </r>
       <r>   10.8130    0.0000 </r>
       <r>   10.8827    0.0000 </r>
      </set>
      <set comment="kpoint 47">
       <r>  -33.7239    1.0000 </r>
       <r>  -12.5930    1.0000 </r>
       <r>  -12.5841    1.0000 </r>
       <r>  -12.5614    1.0000 </r>
       <r>  -12.5505    1.0000 </r>
       <r>  -12.5472    1.0000 </r>
       <r>   -9.2002    1.0000 </r>
       <r>   -9.1180    1.0000 </r>
       <r>   -9.0331    1.0000 </r>
       <r>   -1.3338    1.0000 </r>
       <r>    5.0594    1.0000 </r>
       <r>    5.1932    1.0000 </r>
       <r>    5.2694    1.0000 </r>
       <r>    5.9928    1.0000 </r>
       <r>    6.2380    1.0000 </r>
       <r>    6.5140    1.0000 </r>
       <r>    7.7248    1.0000 </r>
       <r>    8.6021    1.0000 </r>
       <r>   10.1412    1.0000 </r>
       <r>   10.3653    0.8487 </r>
       <r>   10.5128    0.0000 </r>
       <r>   10.7420    0.0000 </r>
       <r>   10.7797    0.0000 </r>
       <r>   10.7819    0.0000 </r>
      </set>
      <set comment="kpoint 48">
       <r>  -33.7240    1.0000 </r>
       <r>  -12.5795    1.0000 </r>
       <r>  -12.5766    1.0000 </r>
       <r>  -12.5650    1.0000 </r>
       <r>  -12.5463    1.0000 </r>
       <r>  -12.5463    1.0000 </r>
       <r>   -9.2326    1.0000 </r>
       <r>   -9.0729    1.0000 </r>
       <r>   -9.0729    1.0000 </r>
       <r>   -1.4764    1.0000 </r>
       <r>    5.1472    1.0000 </r>
       <r>    5.5285    1.0000 </r>
       <r>    5.5285    1.0000 </r>
       <r>    5.5816    1.0000 </r>
       <r>    6.1447    1.0000 </r>
       <r>    6.3213    1.0000 </r>
       <r>    8.7955    1.0000 </r>
       <r>    8.7955    1.0000 </r>
       <r>   10.2212    1.0000 </r>
       <r>   10.4600    0.0000 </r>
       <r>   10.4687    0.0000 </r>
       <r>   10.4687    0.0000 </r>
       <r>   10.8275    0.0000 </r>
       <r>   10.9483    0.0000 </r>
      </set>
      <set comment="kpoint 49">
       <r>  -33.7239    1.0000 </r>
       <r>  -12.5787    1.0000 </r>
       <r>  -12.5786    1.0000 </r>
       <r>  -12.5647    1.0000 </r>
       <r>  -12.5467    1.0000 </r>
       <r>  -12.5462    1.0000 </r>
       <r>   -9.2316    1.0000 </r>
       <r>   -9.0794    1.0000 </r>
       <r>   -9.0682    1.0000 </r>
       <r>   -1.4632    1.0000 </r>
       <r>    5.2148    1.0000 </r>
       <r>    5.4380    1.0000 </r>
       <r>    5.4887    1.0000 </r>
       <r>    5.7493    1.0000 </r>
       <r>    6.1612    1.0000 </r>
       <r>    6.2083    1.0000 </r>
       <r>    8.5989    1.0000 </r>
       <r>    8.7772    1.0000 </r>
       <r>   10.2550    1.0000 </r>
       <r>   10.3936    0.0015 </r>
       <r>   10.4777    0.0000 </r>
       <r>   10.5844    0.0000 </r>
       <r>   10.7651    0.0000 </r>
       <r>   10.9492    0.0000 </r>
      </set>
      <set comment="kpoint 50">
       <r>  -33.7287    1.0000 </r>
       <r>  -12.6011    1.0000 </r>
       <r>  -12.5862    1.0000 </r>
       <r>  -12.5567    1.0000 </r>
       <r>  -12.5530    1.0000 </r>
       <r>  -12.5528    1.0000 </r>
       <r>   -9.1089    1.0000 </r>
       <r>   -9.0510    1.0000 </r>
       <r>   -9.0181    1.0000 </r>
       <r>   -1.8625    1.0000 </r>
       <r>    4.6765    1.0000 </r>
       <r>    5.3461    1.0000 </r>
       <r>    5.6971    1.0000 </r>
       <r>    5.9638    1.0000 </r>
       <r>    6.2565    1.0000 </r>
       <r>    7.6574    1.0000 </r>
       <r>    8.4715    1.0000 </r>
       <r>    8.8618    1.0000 </r>
       <r>    9.7659    1.0000 </r>
       <r>   10.2964    1.0000 </r>
       <r>   10.3503    0.9992 </r>
       <r>   10.5706    0.0000 </r>
       <r>   10.6578    0.0000 </r>
       <r>   10.8901    0.0000 </r>
      </set>
      <set comment="kpoint 51">
       <r>  -33.7276    1.0000 </r>
       <r>  -12.6071    1.0000 </r>
       <r>  -12.5899    1.0000 </r>
       <r>  -12.5578    1.0000 </r>
       <r>  -12.5524    1.0000 </r>
       <r>  -12.5519    1.0000 </r>
       <r>   -9.1538    1.0000 </r>
       <r>   -9.0498    1.0000 </r>
       <r>   -9.0014    1.0000 </r>
       <r>   -1.6224    1.0000 </r>
       <r>    4.4370    1.0000 </r>
       <r>    5.1537    1.0000 </r>
       <r>    5.6079    1.0000 </r>
       <r>    5.9876    1.0000 </r>
       <r>    6.3217    1.0000 </r>
       <r>    7.2818    1.0000 </r>
       <r>    8.2677    1.0000 </r>
       <r>    8.7874    1.0000 </r>
       <r>    9.7822    1.0000 </r>
       <r>   10.3318    1.0000 </r>
       <r>   10.3639    0.8900 </r>
       <r>   10.6634    0.0000 </r>
       <r>   10.6671    0.0000 </r>
       <r>   10.8995    0.0000 </r>
      </set>
      <set comment="kpoint 52">
       <r>  -33.7265    1.0000 </r>
       <r>  -12.6117    1.0000 </r>
       <r>  -12.5958    1.0000 </r>
       <r>  -12.5592    1.0000 </r>
       <r>  -12.5518    1.0000 </r>
       <r>  -12.5508    1.0000 </r>
       <r>   -9.2022    1.0000 </r>
       <r>   -9.0388    1.0000 </r>
       <r>   -8.9888    1.0000 </r>
       <r>   -1.3729    1.0000 </r>
       <r>    4.2689    1.0000 </r>
       <r>    5.0284    1.0000 </r>
       <r>    5.4699    1.0000 </r>
       <r>    5.9790    1.0000 </r>
       <r>    6.3079    1.0000 </r>
       <r>    6.8665    1.0000 </r>
       <r>    8.2559    1.0000 </r>
       <r>    8.7309    1.0000 </r>
       <r>    9.7907    1.0000 </r>
       <r>   10.3707    0.6044 </r>
[...]
       <r>   10.1067    1.0000 </r>
       <r>   10.3933    0.0017 </r>
       <r>   10.5953    0.0000 </r>
       <r>   10.6509    0.0000 </r>
       <r>   10.7510    0.0000 </r>
       <r>   10.8280    0.0000 </r>
      </set>
      <set comment="kpoint 81">
       <r>  -33.7242    1.0000 </r>
       <r>  -12.6052    1.0000 </r>
       <r>  -12.5863    1.0000 </r>
       <r>  -12.5583    1.0000 </r>
       <r>  -12.5544    1.0000 </r>
       <r>  -12.5474    1.0000 </r>
       <r>   -9.1864    1.0000 </r>
       <r>   -9.1208    1.0000 </r>
       <r>   -9.0156    1.0000 </r>
       <r>   -1.2482    1.0000 </r>
       <r>    4.7549    1.0000 </r>
       <r>    4.9592    1.0000 </r>
       <r>    5.3914    1.0000 </r>
       <r>    6.0434    1.0000 </r>
       <r>    6.2815    1.0000 </r>
       <r>    6.8310    1.0000 </r>
       <r>    7.2278    1.0000 </r>
       <r>    8.7103    1.0000 </r>
       <r>   10.0840    1.0000 </r>
       <r>   10.3765    0.2889 </r>
       <r>   10.5837    0.0000 </r>
       <r>   10.6406    0.0000 </r>
       <r>   10.7255    0.0000 </r>
       <r>   10.8490    0.0000 </r>
      </set>
      <set comment="kpoint 82">
       <r>  -33.7239    1.0000 </r>
       <r>  -12.5939    1.0000 </r>
       <r>  -12.5789    1.0000 </r>
       <r>  -12.5620    1.0000 </r>
       <r>  -12.5511    1.0000 </r>
       <r>  -12.5461    1.0000 </r>
       <r>   -9.2026    1.0000 </r>
       <r>   -9.1015    1.0000 </r>
       <r>   -9.0531    1.0000 </r>
       <r>   -1.3609    1.0000 </r>
       <r>    4.9470    1.0000 </r>
       <r>    5.2460    1.0000 </r>
       <r>    5.5189    1.0000 </r>
       <r>    5.9829    1.0000 </r>
       <r>    6.2551    1.0000 </r>
       <r>    6.4419    1.0000 </r>
       <r>    7.5216    1.0000 </r>
       <r>    8.8440    1.0000 </r>
       <r>   10.1650    1.0000 </r>
       <r>   10.3925    0.0024 </r>
       <r>   10.5301    0.0000 </r>
       <r>   10.7060    0.0000 </r>
       <r>   10.7821    0.0000 </r>
       <r>   10.8208    0.0000 </r>
      </set>
      <set comment="kpoint 83">
       <r>  -33.7238    1.0000 </r>
       <r>  -12.5985    1.0000 </r>
       <r>  -12.5790    1.0000 </r>
       <r>  -12.5603    1.0000 </r>
       <r>  -12.5533    1.0000 </r>
       <r>  -12.5461    1.0000 </r>
       <r>   -9.1876    1.0000 </r>
       <r>   -9.1193    1.0000 </r>
       <r>   -9.0453    1.0000 </r>
       <r>   -1.3244    1.0000 </r>
       <r>    4.9034    1.0000 </r>
       <r>    5.2717    1.0000 </r>
       <r>    5.4836    1.0000 </r>
       <r>    6.0081    1.0000 </r>
       <r>    6.2974    1.0000 </r>
       <r>    6.5258    1.0000 </r>
       <r>    7.1776    1.0000 </r>
       <r>    8.8340    1.0000 </r>
       <r>   10.1472    1.0000 </r>
       <r>   10.4037    0.0000 </r>
       <r>   10.5662    0.0000 </r>
       <r>   10.7168    0.0000 </r>
       <r>   10.7670    0.0000 </r>
       <r>   10.7901    0.0000 </r>
      </set>
      <set comment="kpoint 84">
       <r>  -33.7238    1.0000 </r>
       <r>  -12.6012    1.0000 </r>
       <r>  -12.5791    1.0000 </r>
       <r>  -12.5588    1.0000 </r>
       <r>  -12.5551    1.0000 </r>
       <r>  -12.5461    1.0000 </r>
       <r>   -9.1787    1.0000 </r>
       <r>   -9.1257    1.0000 </r>
       <r>   -9.0436    1.0000 </r>
       <r>   -1.3054    1.0000 </r>
       <r>    4.8663    1.0000 </r>
       <r>    5.2321    1.0000 </r>
       <r>    5.5029    1.0000 </r>
       <r>    6.0255    1.0000 </r>
       <r>    6.3333    1.0000 </r>
       <r>    6.6702    1.0000 </r>
       <r>    6.9101    1.0000 </r>
       <r>    8.8528    1.0000 </r>
       <r>   10.1357    1.0000 </r>
       <r>   10.4141    0.0000 </r>
       <r>   10.6049    0.0000 </r>
       <r>   10.6669    0.0000 </r>
       <r>   10.7550    0.0000 </r>
       <r>   10.8176    0.0000 </r>
      </set>
     </set>
    </set>
   </array>
  </eigenvalues>
  <separator name="orbital magnetization" >
   <v name="MAGDIPOLOUT">      0.00000000      0.00000000      0.00000000</v>
  </separator>
  <dos>
   <i name="efermi">     10.37257872 </i>
   <total>
    <array>
     <dimension dim="1">gridpoints</dimension>
     <dimension dim="2">spin</dimension>
     <field>energy</field>
     <field>total</field>
     <field>integrated</field>
     <set>
      <set comment="spin 1">
       <r>   -35.9704     0.0000     0.0000 </r>
       <r>   -35.8062     0.0000     0.0000 </r>
       <r>   -35.6419     0.0000     0.0000 </r>
       <r>   -35.4777     0.0000     0.0000 </r>
       <r>   -35.3134     0.0000     0.0000 </r>
       <r>   -35.1491     0.0000     0.0000 </r>
       <r>   -34.9849     0.0000     0.0000 </r>
       <r>   -34.8206     0.0000     0.0000 </r>
       <r>   -34.6564     0.0000     0.0000 </r>
       <r>   -34.4921     0.0000     0.0000 </r>
       <r>   -34.3279     0.0000     0.0000 </r>
       <r>   -34.1636     0.0000     0.0000 </r>
       <r>   -33.9993     0.0000     0.0000 </r>
       <r>   -33.8351     0.0000     0.0000 </r>
       <r>   -33.6708    12.1761     2.0000 </r>
       <r>   -33.5066     0.0000     2.0000 </r>
       <r>   -33.3423     0.0000     2.0000 </r>
       <r>   -33.1781     0.0000     2.0000 </r>
       <r>   -33.0138     0.0000     2.0000 </r>
       <r>   -32.8495     0.0000     2.0000 </r>
       <r>   -32.6853     0.0000     2.0000 </r>
       <r>   -32.5210     0.0000     2.0000 </r>
       <r>   -32.3568     0.0000     2.0000 </r>
       <r>   -32.1925     0.0000     2.0000 </r>
       <r>   -32.0283     0.0000     2.0000 </r>
       <r>   -31.8640     0.0000     2.0000 </r>
       <r>   -31.6997     0.0000     2.0000 </r>
       <r>   -31.5355     0.0000     2.0000 </r>
       <r>   -31.3712     0.0000     2.0000 </r>
       <r>   -31.2070     0.0000     2.0000 </r>
       <r>   -31.0427     0.0000     2.0000 </r>
       <r>   -30.8785     0.0000     2.0000 </r>
       <r>   -30.7142     0.0000     2.0000 </r>
       <r>   -30.5499     0.0000     2.0000 </r>
       <r>   -30.3857     0.0000     2.0000 </r>
       <r>   -30.2214     0.0000     2.0000 </r>
       <r>   -30.0572     0.0000     2.0000 </r>
       <r>   -29.8929     0.0000     2.0000 </r>
       <r>   -29.7287     0.0000     2.0000 </r>
       <r>   -29.5644     0.0000     2.0000 </r>
       <r>   -29.4001     0.0000     2.0000 </r>
       <r>   -29.2359     0.0000     2.0000 </r>
       <r>   -29.0716     0.0000     2.0000 </r>
       <r>   -28.9074     0.0000     2.0000 </r>
       <r>   -28.7431     0.0000     2.0000 </r>
       <r>   -28.5789     0.0000     2.0000 </r>
       <r>   -28.4146     0.0000     2.0000 </r>
       <r>   -28.2504     0.0000     2.0000 </r>
       <r>   -28.0861     0.0000     2.0000 </r>
       <r>   -27.9218     0.0000     2.0000 </r>
       <r>   -27.7576     0.0000     2.0000 </r>
       <r>   -27.5933     0.0000     2.0000 </r>
       <r>   -27.4291     0.0000     2.0000 </r>
       <r>   -27.2648     0.0000     2.0000 </r>
       <r>   -27.1006     0.0000     2.0000 </r>
       <r>   -26.9363     0.0000     2.0000 </r>
       <r>   -26.7720     0.0000     2.0000 </r>
       <r>   -26.6078     0.0000     2.0000 </r>
       <r>   -26.4435     0.0000     2.0000 </r>
       <r>   -26.2793     0.0000     2.0000 </r>
       <r>   -26.1150     0.0000     2.0000 </r>
       <r>   -25.9508     0.0000     2.0000 </r>
       <r>   -25.7865     0.0000     2.0000 </r>
       <r>   -25.6222     0.0000     2.0000 </r>
       <r>   -25.4580     0.0000     2.0000 </r>
       <r>   -25.2937     0.0000     2.0000 </r>
       <r>   -25.1295     0.0000     2.0000 </r>
       <r>   -24.9652     0.0000     2.0000 </r>
       <r>   -24.8010     0.0000     2.0000 </r>
       <r>   -24.6367     0.0000     2.0000 </r>
       <r>   -24.4724     0.0000     2.0000 </r>
       <r>   -24.3082     0.0000     2.0000 </r>
       <r>   -24.1439     0.0000     2.0000 </r>
       <r>   -23.9797     0.0000     2.0000 </r>
       <r>   -23.8154     0.0000     2.0000 </r>
       <r>   -23.6512     0.0000     2.0000 </r>
       <r>   -23.4869     0.0000     2.0000 </r>
       <r>   -23.3226     0.0000     2.0000 </r>
       <r>   -23.1584     0.0000     2.0000 </r>
       <r>   -22.9941     0.0000     2.0000 </r>
       <r>   -22.8299     0.0000     2.0000 </r>
       <r>   -22.6656     0.0000     2.0000 </r>
       <r>   -22.5014     0.0000     2.0000 </r>
       <r>   -22.3371     0.0000     2.0000 </r>
       <r>   -22.1728     0.0000     2.0000 </r>
       <r>   -22.0086     0.0000     2.0000 </r>
       <r>   -21.8443     0.0000     2.0000 </r>
       <r>   -21.6801     0.0000     2.0000 </r>
       <r>   -21.5158     0.0000     2.0000 </r>
       <r>   -21.3516     0.0000     2.0000 </r>
       <r>   -21.1873     0.0000     2.0000 </r>
       <r>   -21.0231     0.0000     2.0000 </r>
       <r>   -20.8588     0.0000     2.0000 </r>
       <r>   -20.6945     0.0000     2.0000 </r>
       <r>   -20.5303     0.0000     2.0000 </r>
       <r>   -20.3660     0.0000     2.0000 </r>
       <r>   -20.2018     0.0000     2.0000 </r>
       <r>   -20.0375     0.0000     2.0000 </r>
       <r>   -19.8733     0.0000     2.0000 </r>
       <r>   -19.7090     0.0000     2.0000 </r>
       <r>   -19.5447     0.0000     2.0000 </r>
       <r>   -19.3805     0.0000     2.0000 </r>
       <r>   -19.2162     0.0000     2.0000 </r>
       <r>   -19.0520     0.0000     2.0000 </r>
       <r>   -18.8877     0.0000     2.0000 </r>
       <r>   -18.7235     0.0000     2.0000 </r>
       <r>   -18.5592     0.0000     2.0000 </r>
       <r>   -18.3949     0.0000     2.0000 </r>
       <r>   -18.2307     0.0000     2.0000 </r>
       <r>   -18.0664     0.0000     2.0000 </r>
       <r>   -17.9022     0.0000     2.0000 </r>
       <r>   -17.7379     0.0000     2.0000 </r>
       <r>   -17.5737     0.0000     2.0000 </r>
       <r>   -17.4094     0.0000     2.0000 </r>
       <r>   -17.2451     0.0000     2.0000 </r>
       <r>   -17.0809     0.0000     2.0000 </r>
       <r>   -16.9166     0.0000     2.0000 </r>
       <r>   -16.7524     0.0000     2.0000 </r>
       <r>   -16.5881     0.0000     2.0000 </r>
       <r>   -16.4239     0.0000     2.0000 </r>
       <r>   -16.2596     0.0000     2.0000 </r>
       <r>   -16.0953     0.0000     2.0000 </r>
       <r>   -15.9311     0.0000     2.0000 </r>
       <r>   -15.7668     0.0000     2.0000 </r>
       <r>   -15.6026     0.0000     2.0000 </r>
       <r>   -15.4383     0.0000     2.0000 </r>
       <r>   -15.2741     0.0000     2.0000 </r>
       <r>   -15.1098     0.0000     2.0000 </r>
       <r>   -14.9455     0.0000     2.0000 </r>
       <r>   -14.7813     0.0000     2.0000 </r>
       <r>   -14.6170     0.0000     2.0000 </r>
       <r>   -14.4528     0.0000     2.0000 </r>
       <r>   -14.2885     0.0000     2.0000 </r>
       <r>   -14.1243     0.0000     2.0000 </r>
       <r>   -13.9600     0.0000     2.0000 </r>
       <r>   -13.7958     0.0000     2.0000 </r>
       <r>   -13.6315     0.0000     2.0000 </r>
       <r>   -13.4672     0.0000     2.0000 </r>
       <r>   -13.3030     0.0000     2.0000 </r>
       <r>   -13.1387     0.0000     2.0000 </r>
       <r>   -12.9745     0.0000     2.0000 </r>
       <r>   -12.8102     0.0000     2.0000 </r>
       <r>   -12.6460     0.0000     2.0000 </r>
       <r>   -12.4817    34.7547    12.0000 </r>
       <r>   -12.3174     0.0000    12.0000 </r>
       <r>   -12.1532     0.0000    12.0000 </r>
       <r>   -11.9889     0.0000    12.0000 </r>
       <r>   -11.8247     0.0000    12.0000 </r>
       <r>   -11.6604     0.0000    12.0000 </r>
       <r>   -11.4962     0.0000    12.0000 </r>
       <r>   -11.3319     0.0000    12.0000 </r>
       <r>   -11.1676     0.0000    12.0000 </r>
       <r>   -11.0034     0.0000    12.0000 </r>
       <r>   -10.8391     0.0000    12.0000 </r>
       <r>   -10.6749     0.0000    12.0000 </r>
       <r>   -10.5106     0.0000    12.0000 </r>
       <r>   -10.3464     0.0000    12.0000 </r>
       <r>   -10.1821     0.0000    12.0000 </r>
       <r>   -10.0178     0.0000    12.0000 </r>
       <r>    -9.8536     0.0000    12.0000 </r>
       <r>    -9.6893     0.0000    12.0000 </r>
       <r>    -9.5251     0.0000    12.0000 </r>
       <r>    -9.3608     0.0000    12.0000 </r>
       <r>    -9.1966     7.1745    13.2076 </r>
       <r>    -9.0323    12.6681    16.1746 </r>
       <r>    -8.8680     0.0000    18.0000 </r>
       <r>    -8.7038     0.0000    18.0000 </r>
       <r>    -8.5395     0.0000    18.0000 </r>
       <r>    -8.3753     0.0000    18.0000 </r>
       <r>    -8.2110     0.0000    18.0000 </r>
       <r>    -8.0468     0.0000    18.0000 </r>
       <r>    -7.8825     0.0000    18.0000 </r>
       <r>    -7.7182     0.0000    18.0000 </r>
       <r>    -7.5540     0.0000    18.0000 </r>
       <r>    -7.3897     0.0000    18.0000 </r>
       <r>    -7.2255     0.0000    18.0000 </r>
       <r>    -7.0612     0.0000    18.0000 </r>
       <r>    -6.8970     0.0000    18.0000 </r>
       <r>    -6.7327     0.0000    18.0000 </r>
       <r>    -6.5685     0.0000    18.0000 </r>
       <r>    -6.4042     0.0000    18.0000 </r>
       <r>    -6.2399     0.0000    18.0000 </r>
       <r>    -6.0757     0.0000    18.0000 </r>
       <r>    -5.9114     0.0000    18.0000 </r>
       <r>    -5.7472     0.0000    18.0000 </r>
       <r>    -5.5829     0.0000    18.0000 </r>
       <r>    -5.4187     0.0000    18.0000 </r>
       <r>    -5.2544     0.0000    18.0000 </r>
       <r>    -5.0901     0.0000    18.0000 </r>
       <r>    -4.9259     0.0000    18.0000 </r>
       <r>    -4.7616     0.0000    18.0000 </r>
       <r>    -4.5974     0.0000    18.0000 </r>
       <r>    -4.4331     0.0000    18.0000 </r>
       <r>    -4.2689     0.0000    18.0000 </r>
       <r>    -4.1046     0.0000    18.0000 </r>
       <r>    -3.9403     0.0000    18.0000 </r>
       <r>    -3.7761     0.0000    18.0000 </r>
       <r>    -3.6118     0.0000    18.0000 </r>
       <r>    -3.4476     0.0000    18.0000 </r>
       <r>    -3.2833     0.0000    18.0000 </r>
       <r>    -3.1191     0.0000    18.0000 </r>
       <r>    -2.9548     0.0000    18.0000 </r>
       <r>    -2.7905     0.0000    18.0000 </r>
       <r>    -2.6263     0.0000    18.0000 </r>
       <r>    -2.4620     0.0000    18.0000 </r>
       <r>    -2.2978     0.0001    18.0000 </r>
       <r>    -2.1335     0.0776    18.0137 </r>
       <r>    -1.9693     0.1774    18.0537 </r>
       <r>    -1.8050     0.2662    18.1029 </r>
       <r>    -1.6407     0.1445    18.1703 </r>
       <r>    -1.4765     0.4459    18.3309 </r>
       <r>    -1.3122     1.9497    18.9183 </r>
       <r>    -1.1480     2.5268    19.7778 </r>
       <r>    -0.9837     0.5733    19.9995 </r>
       <r>    -0.8195     0.0000    20.0000 </r>
       <r>    -0.6552     0.0000    20.0000 </r>
       <r>    -0.4909     0.0000    20.0000 </r>
       <r>    -0.3267     0.0000    20.0000 </r>
       <r>    -0.1624     0.0000    20.0000 </r>
       <r>     0.0018     0.0000    20.0000 </r>
       <r>     0.1661     0.0000    20.0000 </r>
       <r>     0.3303     0.0000    20.0000 </r>
       <r>     0.4946     0.0000    20.0000 </r>
       <r>     0.6588     0.0000    20.0000 </r>
       <r>     0.8231     0.0000    20.0000 </r>
       <r>     0.9874     0.0000    20.0000 </r>
       <r>     1.1516     0.0000    20.0000 </r>
       <r>     1.3159     0.0000    20.0000 </r>
       <r>     1.4801     0.0000    20.0000 </r>
       <r>     1.6444     0.0000    20.0000 </r>
       <r>     1.8086     0.0000    20.0000 </r>
       <r>     1.9729     0.0000    20.0000 </r>
       <r>     2.1372     0.0000    20.0000 </r>
       <r>     2.3014     0.0000    20.0000 </r>
       <r>     2.4657     0.0000    20.0000 </r>
       <r>     2.6299     0.0000    20.0000 </r>
       <r>     2.7942     0.0000    20.0000 </r>
       <r>     2.9584     0.0000    20.0000 </r>
       <r>     3.1227     0.0000    20.0000 </r>
       <r>     3.2870     0.0000    20.0000 </r>
       <r>     3.4512     0.0000    20.0000 </r>
       <r>     3.6155     0.0000    20.0000 </r>
       <r>     3.7797     0.0000    20.0000 </r>
       <r>     3.9440     0.0000    20.0000 </r>
       <r>     4.1082     0.2631    20.0723 </r>
       <r>     4.2725     2.3629    20.5829 </r>
       <r>     4.4368     1.6357    21.0261 </r>
       <r>     4.6010     0.5150    21.2207 </r>
       <r>     4.7653     0.3894    21.4950 </r>
       <r>     4.9295     1.9716    21.8496 </r>
       <r>     5.0938     3.9374    23.0573 </r>
       <r>     5.2580     2.9065    23.9203 </r>
       <r>     5.4223     2.2815    24.8754 </r>
       <r>     5.5866     2.5747    25.7211 </r>
       <r>     5.7508     0.5709    26.0173 </r>
       <r>     5.9151     0.2660    26.1147 </r>
       <r>     6.0793     7.3141    28.0480 </r>
       <r>     6.2436     4.4667    29.2007 </r>
       <r>     6.4078     1.9159    30.2182 </r>
       <r>     6.5721     1.5694    30.5291 </r>
       <r>     6.7364     1.3620    31.0303 </r>
       <r>     6.9006     1.0223    31.3969 </r>
       <r>     7.0649     0.7311    31.6494 </r>
       <r>     7.2291     0.6533    31.8442 </r>
       <r>     7.3934     0.4651    32.0227 </r>
       <r>     7.5576     0.9798    32.2602 </r>
       <r>     7.7219     0.4897    32.4910 </r>
       <r>     7.8862     0.6907    32.7061 </r>
       <r>     8.0504     0.5999    33.0462 </r>
       <r>     8.2147     0.4620    33.2202 </r>
       <r>     8.3789     0.8355    33.5656 </r>
       <r>     8.5432     0.6318    33.7196 </r>
       <r>     8.7074     5.2761    35.0178 </r>
       <r>     8.8717     1.8006    35.9107 </r>
       <r>     9.0359     0.2882    35.9727 </r>
       <r>     9.2002     0.0166    36.0009 </r>
       <r>     9.3645     0.0000    36.0009 </r>
       <r>     9.5287     0.1133    36.0195 </r>
       <r>     9.6930     0.8235    36.1708 </r>
       <r>     9.8572     2.0236    36.6665 </r>
       <r>    10.0215     1.8451    37.2981 </r>
       <r>    10.1857     1.7912    37.9392 </r>
       <r>    10.3500     2.5962    38.4319 </r>
       <r>    10.5143     5.8921    41.4539 </r>
       <r>    10.6785    10.1972    43.8989 </r>
       <r>    10.8428     7.8916    46.8857 </r>
       <r>    11.0070     0.9003    47.9840 </r>
       <r>    11.1713     0.0000    48.0000 </r>
       <r>    11.3355     0.0000    48.0000 </r>
       <r>    11.4998     0.0000    48.0000 </r>
       <r>    11.6641     0.0000    48.0000 </r>
       <r>    11.8283     0.0000    48.0000 </r>
       <r>    11.9926     0.0000    48.0000 </r>
       <r>    12.1568     0.0000    48.0000 </r>
       <r>    12.3211     0.0000    48.0000 </r>
       <r>    12.4853     0.0000    48.0000 </r>
       <r>    12.6496     0.0000    48.0000 </r>
       <r>    12.8139     0.0000    48.0000 </r>
       <r>    12.9781     0.0000    48.0000 </r>
       <r>    13.1424     0.0000    48.0000 </r>
       <r>    13.3066     0.0000    48.0000 </r>
      </set>
     </set>
    </array>
   </total>
  </dos>
 </calculation>
 <structure name="finalpos" >
  <crystal>
   <varray name="basis" >
    <v>       0.00000000       3.29537428       3.29537428 </v>
    <v>       3.29537428       0.00000000       3.29537428 </v>
    <v>       3.29537428       3.29537428       0.00000000 </v>
   </varray>
   <i name="volume">     71.57217906 </i>
   <varray name="rec_basis" >
    <v>      -0.15172783       0.15172783       0.15172783 </v>
    <v>       0.15172783      -0.15172783       0.15172783 </v>
    <v>       0.15172783       0.15172783      -0.15172783 </v>
   </varray>
  </crystal>
  <varray name="positions" >
   <v>       0.25000000       0.25000000       0.25000000 </v>
   <v>       0.75000000       0.75000000       0.75000000 </v>
   <v>       0.00000000       0.00000000       0.00000000 </v>
  </varray>
 </structure>
</modeling>
