   3   3   0   0
  0.2054746E+02  0.4434025E-09  0.4434025E-09  0.4434025E-09  0.5000000E-15
  1.000000000000000E-004
  CAR
 unknown system
     14.09107593    -24.43634039  301      9.53550892      1.00000000
    -24.436  0.0000E+00  0.0000E+00
    -24.308  0.0000E+00  0.0000E+00
    -24.179  0.0000E+00  0.0000E+00
    -24.051  0.0000E+00  0.0000E+00
    -23.923  0.0000E+00  0.0000E+00
    -23.794  0.0000E+00  0.0000E+00
    -23.666  0.0000E+00  0.0000E+00
    -23.537  0.0000E+00  0.0000E+00
    -23.409  0.0000E+00  0.0000E+00
    -23.281  0.0000E+00  0.0000E+00
    -23.152  0.0000E+00  0.0000E+00
    -23.024  0.0000E+00  0.0000E+00
    -22.895  0.0000E+00  0.0000E+00
    -22.767  0.0000E+00  0.0000E+00
    -22.638  0.4671E+02  0.5999E+01
    -22.510  0.0000E+00  0.6000E+01
    -22.382  0.0000E+00  0.6000E+01
    -22.253  0.0000E+00  0.6000E+01
    -22.125  0.0000E+00  0.6000E+01
    -21.996  0.0000E+00  0.6000E+01
    -21.868  0.0000E+00  0.6000E+01
    -21.739  0.0000E+00  0.6000E+01
    -21.611  0.0000E+00  0.6000E+01
    -21.483  0.0000E+00  0.6000E+01
    -21.354  0.0000E+00  0.6000E+01
    -21.226  0.0000E+00  0.6000E+01
    -21.097  0.0000E+00  0.6000E+01
    -20.969  0.0000E+00  0.6000E+01
    -20.840  0.0000E+00  0.6000E+01
    -20.712  0.0000E+00  0.6000E+01
    -20.584  0.0000E+00  0.6000E+01
    -20.455  0.0000E+00  0.6000E+01
    -20.327  0.0000E+00  0.6000E+01
    -20.198  0.0000E+00  0.6000E+01
    -20.070  0.0000E+00  0.6000E+01
    -19.941  0.0000E+00  0.6000E+01
    -19.813  0.0000E+00  0.6000E+01
    -19.685  0.0000E+00  0.6000E+01
    -19.556  0.0000E+00  0.6000E+01
    -19.428  0.0000E+00  0.6000E+01
    -19.299  0.0000E+00  0.6000E+01
    -19.171  0.0000E+00  0.6000E+01
    -19.043  0.0000E+00  0.6000E+01
    -18.914  0.0000E+00  0.6000E+01
    -18.786  0.0000E+00  0.6000E+01
    -18.657  0.0000E+00  0.6000E+01
    -18.529  0.0000E+00  0.6000E+01
    -18.400  0.0000E+00  0.6000E+01
    -18.272  0.0000E+00  0.6000E+01
    -18.144  0.0000E+00  0.6000E+01
    -18.015  0.0000E+00  0.6000E+01
    -17.887  0.0000E+00  0.6000E+01
    -17.758  0.0000E+00  0.6000E+01
    -17.630  0.0000E+00  0.6000E+01
    -17.501  0.0000E+00  0.6000E+01
    -17.373  0.0000E+00  0.6000E+01
    -17.245  0.0000E+00  0.6000E+01
    -17.116  0.0000E+00  0.6000E+01
    -16.988  0.0000E+00  0.6000E+01
    -16.859  0.0000E+00  0.6000E+01
    -16.731  0.0000E+00  0.6000E+01
    -16.602  0.0000E+00  0.6000E+01
    -16.474  0.0000E+00  0.6000E+01
    -16.346  0.0000E+00  0.6000E+01
    -16.217  0.0000E+00  0.6000E+01
    -16.089  0.0000E+00  0.6000E+01
    -15.960  0.0000E+00  0.6000E+01
    -15.832  0.0000E+00  0.6000E+01
    -15.703  0.0000E+00  0.6000E+01
    -15.575  0.0000E+00  0.6000E+01
    -15.447  0.0000E+00  0.6000E+01
    -15.318  0.0000E+00  0.6000E+01
    -15.190  0.0000E+00  0.6000E+01
    -15.061  0.0000E+00  0.6000E+01
    -14.933  0.0000E+00  0.6000E+01
    -14.804  0.0000E+00  0.6000E+01
    -14.676  0.0000E+00  0.6000E+01
    -14.548  0.0000E+00  0.6000E+01
    -14.419  0.0000E+00  0.6000E+01
    -14.291  0.0000E+00  0.6000E+01
    -14.162  0.0000E+00  0.6000E+01
    -14.034  0.0000E+00  0.6000E+01
    -13.906  0.0000E+00  0.6000E+01
    -13.777  0.0000E+00  0.6000E+01
    -13.649  0.0000E+00  0.6000E+01
    -13.520  0.0000E+00  0.6000E+01
    -13.392  0.0000E+00  0.6000E+01
    -13.263  0.0000E+00  0.6000E+01
    -13.135  0.0000E+00  0.6000E+01
    -13.007  0.0000E+00  0.6000E+01
    -12.878  0.0000E+00  0.6000E+01
    -12.750  0.0000E+00  0.6000E+01
    -12.621  0.0000E+00  0.6000E+01
    -12.493  0.0000E+00  0.6000E+01
    -12.364  0.0000E+00  0.6000E+01
    -12.236  0.0000E+00  0.6000E+01
    -12.108  0.0000E+00  0.6000E+01
    -11.979  0.0000E+00  0.6000E+01
    -11.851  0.0000E+00  0.6000E+01
    -11.722  0.0000E+00  0.6000E+01
    -11.594  0.0000E+00  0.6000E+01
    -11.465  0.0000E+00  0.6000E+01
    -11.337  0.0000E+00  0.6000E+01
    -11.209  0.0000E+00  0.6000E+01
    -11.080  0.0000E+00  0.6000E+01
    -10.952  0.0000E+00  0.6000E+01
    -10.823  0.0000E+00  0.6000E+01
    -10.695  0.0000E+00  0.6000E+01
    -10.566  0.0000E+00  0.6000E+01
    -10.438  0.0000E+00  0.6000E+01
    -10.310  0.0000E+00  0.6000E+01
    -10.181  0.0000E+00  0.6000E+01
    -10.053  0.0000E+00  0.6000E+01
     -9.924  0.0000E+00  0.6000E+01
     -9.796  0.0000E+00  0.6000E+01
     -9.667  0.0000E+00  0.6000E+01
     -9.539  0.0000E+00  0.6000E+01
     -9.411  0.0000E+00  0.6000E+01
     -9.282  0.0000E+00  0.6000E+01
     -9.154  0.0000E+00  0.6000E+01
     -9.025  0.0000E+00  0.6000E+01
     -8.897  0.0000E+00  0.6000E+01
     -8.769  0.0000E+00  0.6000E+01
     -8.640  0.0000E+00  0.6000E+01
     -8.512  0.0000E+00  0.6000E+01
     -8.383  0.0000E+00  0.6000E+01
     -8.255  0.0000E+00  0.6000E+01
     -8.126  0.0000E+00  0.6000E+01
     -7.998  0.0000E+00  0.6000E+01
     -7.870  0.0000E+00  0.6000E+01
     -7.741  0.0000E+00  0.6000E+01
     -7.613  0.0000E+00  0.6000E+01
     -7.484  0.0000E+00  0.6000E+01
     -7.356  0.0000E+00  0.6000E+01
     -7.227  0.0000E+00  0.6000E+01
     -7.099  0.0000E+00  0.6000E+01
     -6.971  0.0000E+00  0.6000E+01
     -6.842  0.0000E+00  0.6000E+01
     -6.714  0.0000E+00  0.6000E+01
     -6.585  0.0000E+00  0.6000E+01
     -6.457  0.0000E+00  0.6000E+01
     -6.328  0.0000E+00  0.6000E+01
     -6.200  0.0000E+00  0.6000E+01
     -6.072  0.0000E+00  0.6000E+01
     -5.943  0.0000E+00  0.6000E+01
     -5.815  0.0000E+00  0.6000E+01
     -5.686  0.0000E+00  0.6000E+01
     -5.558  0.0000E+00  0.6000E+01
     -5.429  0.0000E+00  0.6000E+01
     -5.301  0.0000E+00  0.6000E+01
     -5.173  0.0000E+00  0.6000E+01
     -5.044  0.0000E+00  0.6000E+01
     -4.916  0.0000E+00  0.6000E+01
     -4.787  0.0000E+00  0.6000E+01
     -4.659  0.0000E+00  0.6000E+01
     -4.531  0.0000E+00  0.6000E+01
     -4.402  0.0000E+00  0.6000E+01
     -4.274  0.0000E+00  0.6000E+01
     -4.145  0.0000E+00  0.6000E+01
     -4.017  0.0000E+00  0.6000E+01
     -3.888  0.0000E+00  0.6000E+01
     -3.760  0.0000E+00  0.6000E+01
     -3.632  0.7010E-02  0.6001E+01
     -3.503  0.9924E-01  0.6014E+01
     -3.375  0.2119E+00  0.6052E+01
     -3.246  0.4639E-01  0.6060E+01
     -3.118  0.1659E+00  0.6124E+01
     -2.989  0.5787E-02  0.6155E+01
     -2.861  0.5544E+00  0.6236E+01
     -2.733  0.3402E+00  0.6301E+01
     -2.604  0.5111E+00  0.6374E+01
     -2.476  0.5530E+00  0.6489E+01
     -2.347  0.5997E+00  0.6610E+01
     -2.219  0.9538E+00  0.6826E+01
     -2.090  0.1877E+01  0.7103E+01
     -1.962  0.3168E+01  0.7735E+01
     -1.834  0.0000E+00  0.8000E+01
     -1.705  0.0000E+00  0.8000E+01
     -1.577  0.0000E+00  0.8000E+01
     -1.448  0.0000E+00  0.8000E+01
     -1.320  0.0000E+00  0.8000E+01
     -1.191  0.0000E+00  0.8000E+01
     -1.063  0.0000E+00  0.8000E+01
     -0.935  0.0000E+00  0.8000E+01
     -0.806  0.0000E+00  0.8000E+01
     -0.678  0.0000E+00  0.8000E+01
     -0.549  0.0000E+00  0.8000E+01
     -0.421  0.0000E+00  0.8000E+01
     -0.292  0.0000E+00  0.8000E+01
     -0.164  0.0000E+00  0.8000E+01
     -0.036  0.0000E+00  0.8000E+01
      0.093  0.0000E+00  0.8000E+01
      0.221  0.0000E+00  0.8000E+01
      0.350  0.0000E+00  0.8000E+01
      0.478  0.0000E+00  0.8000E+01
      0.606  0.0000E+00  0.8000E+01
      0.735  0.0000E+00  0.8000E+01
      0.863  0.0000E+00  0.8000E+01
      0.992  0.0000E+00  0.8000E+01
      1.120  0.0000E+00  0.8000E+01
      1.249  0.0000E+00  0.8000E+01
      1.377  0.0000E+00  0.8000E+01
      1.505  0.1017E-09  0.8000E+01
      1.634  0.2486E+00  0.8039E+01
      1.762  0.9384E+00  0.8215E+01
      1.891  0.2549E+01  0.8746E+01
      2.019  0.1620E+01  0.9217E+01
      2.148  0.1102E+01  0.9533E+01
      2.276  0.1276E+01  0.9792E+01
      2.404  0.4250E+00  0.9868E+01
      2.533  0.3828E+00  0.9917E+01
      2.661  0.7528E-01  0.9934E+01
      2.790  0.8055E+00  0.1005E+02
      2.918  0.3321E+01  0.1061E+02
      3.047  0.3175E+01  0.1150E+02
      3.175  0.2805E+01  0.1211E+02
      3.303  0.2976E+01  0.1274E+02
      3.432  0.2187E+01  0.1333E+02
      3.560  0.1813E+01  0.1368E+02
      3.689  0.1333E+01  0.1394E+02
      3.817  0.2089E+00  0.1402E+02
      3.946  0.1480E+01  0.1422E+02
      4.074  0.2834E+01  0.1474E+02
      4.202  0.5905E+01  0.1571E+02
      4.331  0.4302E+01  0.1669E+02
      4.459  0.4604E+01  0.1777E+02
      4.588  0.3080E+01  0.1838E+02
      4.716  0.2665E+01  0.1892E+02
      4.844  0.1735E+01  0.1930E+02
      4.973  0.1373E+01  0.1954E+02
      5.101  0.7478E+00  0.1967E+02
      5.230  0.9619E+00  0.1979E+02
      5.358  0.7098E+00  0.1994E+02
      5.487  0.5464E+00  0.2005E+02
      5.615  0.1522E+01  0.2029E+02
      5.743  0.7648E+00  0.2048E+02
      5.872  0.4348E+00  0.2060E+02
      6.000  0.1304E+01  0.2080E+02
      6.129  0.7333E+00  0.2102E+02
      6.257  0.7317E+00  0.2119E+02
      6.386  0.9532E+00  0.2147E+02
      6.514  0.1318E+01  0.2173E+02
      6.642  0.3300E+01  0.2250E+02
      6.771  0.1515E+01  0.2276E+02
      6.899  0.2047E+01  0.2316E+02
      7.028  0.1586E+01  0.2347E+02
      7.156  0.5701E+00  0.2365E+02
      7.285  0.7751E+00  0.2380E+02
      7.413  0.5595E+00  0.2390E+02
      7.541  0.2078E+00  0.2395E+02
      7.670  0.1027E-01  0.2397E+02
      7.798  0.2127E-01  0.2400E+02
      7.927  0.0000E+00  0.2400E+02
      8.055  0.0000E+00  0.2400E+02
      8.184  0.0000E+00  0.2400E+02
      8.312  0.0000E+00  0.2400E+02
      8.440  0.0000E+00  0.2400E+02
      8.569  0.0000E+00  0.2400E+02
      8.697  0.0000E+00  0.2400E+02
      8.826  0.3837E-01  0.2400E+02
      8.954  0.3650E+00  0.2407E+02
      9.083  0.6156E+00  0.2418E+02
      9.211  0.8604E+00  0.2436E+02
      9.339  0.1058E+01  0.2454E+02
      9.468  0.1167E+01  0.2476E+02
      9.596  0.1987E+01  0.2514E+02
      9.725  0.2818E+01  0.2559E+02
      9.853  0.2216E+01  0.2604E+02
      9.981  0.1323E+01  0.2629E+02
     10.110  0.2377E+01  0.2675E+02
     10.238  0.1416E+01  0.2711E+02
     10.367  0.4487E+01  0.2809E+02
     10.495  0.1420E+01  0.2839E+02
     10.624  0.1772E+01  0.2884E+02
     10.752  0.3827E+01  0.2952E+02
     10.880  0.1087E+01  0.2985E+02
     11.009  0.6993E+00  0.2998E+02
     11.137  0.1442E+01  0.3034E+02
     11.266  0.1497E+01  0.3060E+02
     11.394  0.2127E+01  0.3105E+02
     11.523  0.1575E+01  0.3140E+02
     11.651  0.1561E+01  0.3171E+02
     11.779  0.3345E+00  0.3186E+02
     11.908  0.7797E+00  0.3197E+02
     12.036  0.1701E+00  0.3199E+02
     12.165  0.0000E+00  0.3199E+02
     12.293  0.1132E-11  0.3199E+02
     12.422  0.0000E+00  0.3200E+02
     12.550  0.0000E+00  0.3200E+02
     12.678  0.0000E+00  0.3200E+02
     12.807  0.0000E+00  0.3200E+02
     12.935  0.0000E+00  0.3200E+02
     13.064  0.0000E+00  0.3200E+02
     13.192  0.0000E+00  0.3200E+02
     13.321  0.0000E+00  0.3200E+02
     13.449  0.0000E+00  0.3200E+02
     13.577  0.0000E+00  0.3200E+02
     13.706  0.0000E+00  0.3200E+02
     13.834  0.0000E+00  0.3200E+02
     13.963  0.0000E+00  0.3200E+02
     14.091  0.0000E+00  0.3200E+02
