    3    3    1    1
  0.2054746E+02  0.4434025E-09  0.4434025E-09  0.4434025E-09  0.5000000E-15
  1.000000000000000E-004
  CAR
 unknown system
     25     84     16

  0.0000000E+00  0.0000000E+00  0.0000000E+00  0.4551661E-03
    1      -22.661969   1.000000
    2      -22.661969   1.000000
    3      -22.661969   1.000000
    4       -3.647714   1.000000
    5        3.177470   1.000000
    6        3.177470   1.000000
    7        3.177470   1.000000
    8        3.992286   1.000000
    9        3.992286   1.000000
   10        7.746254   1.000000
   11        7.746254   1.000000
   12        7.746254   1.000000
   13        8.783950   1.000000
   14       10.443851   0.000000
   15       10.443851   0.000000
   16       10.443851   0.000000

  0.7692308E-01 -0.8556139E-19 -0.7508706E-18  0.3641329E-02
    1      -22.663277   1.000000
    2      -22.661878   1.000000
    3      -22.661878   1.000000
    4       -3.578819   1.000000
    5        3.100311   1.000000
    6        3.144213   1.000000
    7        3.144213   1.000000
    8        4.038707   1.000000
    9        4.038707   1.000000
   10        7.221112   1.000000
   11        7.680602   1.000000
   12        7.680602   1.000000
   13        8.958206   1.000000
   14       10.274529   0.000000
   15       10.274529   0.000000
   16       10.864619   0.000000

  0.1538462E+00 -0.4516837E-17  0.2843973E-17  0.3641329E-02
    1      -22.666897   1.000000
    2      -22.661664   1.000000
    3      -22.661664   1.000000
    4       -3.379155   1.000000
    5        2.884942   1.000000
    6        3.074675   1.000000
    7        3.074675   1.000000
    8        4.139713   1.000000
    9        4.139713   1.000000
   10        6.332705   1.000000
   11        7.516606   1.000000
   12        7.516606   1.000000
   13        9.144109   1.000000
   14       10.166785   0.000000
   15       10.166785   0.000000
   16       11.662788   0.000000

  0.2307692E+00  0.5336426E-17 -0.7845722E-17  0.3641329E-02
    1      -22.671946   1.000000
    2      -22.661351   1.000000
    3      -22.661351   1.000000
    4       -3.071242   1.000000
    5        2.565477   1.000000
    6        3.013083   1.000000
    7        3.013083   1.000000
    8        4.231068   1.000000
    9        4.231068   1.000000
   10        5.508180   1.000000
   11        7.327161   1.000000
   12        7.327161   1.000000
   13        9.295089   1.000000
   14       10.192994   0.000000
   15       10.192994   0.000000
   16       12.339830   0.000000

  0.3076923E+00 -0.9033674E-17  0.5687946E-17  0.3641329E-02
    1      -22.677247   1.000000
    2      -22.661028   1.000000
    3      -22.661028   1.000000
    4       -2.698079   1.000000
    5        2.181408   1.000000
    6        2.979652   1.000000
    7        2.979652   1.000000
    8        4.273590   1.000000
    9        4.273590   1.000000
   10        4.872397   1.000000
   11        7.175841   1.000000
   12        7.175841   1.000000
   13        9.434286   1.000000
   14       10.321782   0.000000
   15       10.321782   0.000000
   16       11.871633   0.000000

  0.3846154E+00 -0.4058408E-17  0.2763182E-16  0.3641329E-02
    1      -22.681589   1.000000
    2      -22.660761   1.000000
    3      -22.660761   1.000000
    4       -2.333814   1.000000
    5        1.800931   1.000000
    6        2.972750   1.000000
    7        2.972750   1.000000
    8        4.267978   1.000000
    9        4.267978   1.000000
   10        4.464224   1.000000
   11        7.087106   1.000000
   12        7.087106   1.000000
   13        9.575870   0.000000
   14       10.502532   0.000000
   15       10.502532   0.000000
   16       11.095996   0.000000

  0.4615385E+00  0.1120513E-16 -0.1622373E-16  0.3641329E-02
    1      -22.684013   1.000000
    2      -22.660603   1.000000
    3      -22.660603   1.000000
    4       -2.093715   1.000000
    5        1.547189   1.000000
    6        2.977090   1.000000
    7        2.977090   1.000000
    8        4.248114   1.000000
    9        4.248114   1.000000
   10        4.271504   1.000000
   11        7.050952   1.000000
   12        7.050952   1.000000
   13        9.710283   0.000000
   14       10.604216   0.000000
   15       10.646100   0.000000
   16       10.646100   0.000000

  0.7692308E-01  0.7692308E-01  0.1269501E-17  0.2730997E-02
    1      -22.663245   1.000000
    2      -22.662095   1.000000
    3      -22.662095   1.000000
    4       -3.556236   1.000000
    5        2.946283   1.000000
    6        3.209551   1.000000
    7        3.209551   1.000000
    8        4.027208   1.000000
    9        4.060749   1.000000
   10        7.275597   1.000000
   11        7.546350   1.000000
   12        7.546350   1.000000
   13        9.004180   1.000000
   14       10.160509   0.000000
   15       10.679873   0.000000
   16       10.737841   0.000000

  0.1538462E+00  0.7692308E-01 -0.5016914E-17  0.1092399E-01
    1      -22.665920   1.000000
    2      -22.662130   1.000000
    3      -22.661899   1.000000
    4       -3.401391   1.000000
    5        2.729328   1.000000
    6        3.183317   1.000000
    7        3.209088   1.000000
    8        4.098388   1.000000
    9        4.127344   1.000000
   10        6.597125   1.000000
   11        7.352597   1.000000
   12        7.432672   1.000000
   13        9.206609   1.000000
   14       10.008004   0.000000
   15       10.437491   0.000000
   16       11.257481   0.000000

  0.2307692E+00  0.7692308E-01 -0.1828821E-17  0.1092399E-01
    1      -22.670410   1.000000
    2      -22.661991   1.000000
    3      -22.661594   1.000000
    4       -3.131684   1.000000
    5        2.485752   1.000000
    6        3.081333   1.000000
    7        3.171375   1.000000
    8        4.194825   1.000000
    9        4.211867   1.000000
   10        5.782201   1.000000
   11        7.170851   1.000000
   12        7.263573   1.000000
   13        9.458387   1.000000
   14        9.989772   0.000000
   15       10.311024   0.000000
   16       11.855176   0.000000

  0.3076923E+00  0.7692308E-01 -0.2172941E-17  0.1092399E-01
    1      -22.675508   1.000000
    2      -22.661703   1.000000
    3      -22.661388   1.000000
    4       -2.783069   1.000000
    5        2.202291   1.000000
    6        2.981024   1.000000
    7        3.129334   1.000000
    8        4.255134   1.000000
    9        4.272278   1.000000
   10        5.089183   1.000000
   11        7.046920   1.000000
   12        7.091166   1.000000
   13        9.536633   0.436856
   14       10.251896   0.000000
   15       10.317455   0.000000
   16       11.958623   0.000000

  0.3846154E+00  0.7692308E-01 -0.1984779E-17  0.1092399E-01
    1      -22.680036   1.000000
    2      -22.661329   1.000000
    3      -22.661327   1.000000
    4       -2.417909   1.000000
    5        1.891113   1.000000
    6        2.930600   1.000000
    7        3.090562   1.000000
    8        4.266780   1.000000
    9        4.283704   1.000000
   10        4.605727   1.000000
   11        6.965451   1.000000
   12        6.989048   1.000000
   13        9.581023   0.000000
   14       10.438195   0.000000
   15       10.562418   0.000000
   16       11.283394   0.000000

  0.4615385E+00  0.7692308E-01 -0.2328898E-17  0.1092399E-01
    1      -22.683002   1.000000
    2      -22.661423   1.000000
    3      -22.660962   1.000000
    4       -2.134864   1.000000
    5        1.634571   1.000000
    6        2.935192   1.000000
    7        3.045661   1.000000
    8        4.242120   1.000000
    9        4.262490   1.000000
   10        4.361410   1.000000
   11        6.893742   1.000000
   12        6.977164   1.000000
   13        9.685014   0.000000
   14       10.514589   0.000000
   15       10.603120   0.000000
   16       10.982774   0.000000

 -0.4615385E+00  0.7692308E-01  0.8362839E-17  0.1092399E-01
    1      -22.683767   1.000000
    2      -22.661642   1.000000
    3      -22.660680   1.000000
    4       -2.051312   1.000000
    5        1.557863   1.000000
    6        2.978524   1.000000
    7        2.987850   1.000000
    8        4.200949   1.000000
    9        4.276907   1.000000
   10        4.315869   1.000000
   11        6.855396   1.000000
   12        6.995054   1.000000
   13        9.775470   0.000000
   14       10.318907   0.000000
   15       10.677040   0.000000
   16       11.032772   0.000000

 -0.3846154E+00  0.7692308E-01  0.1401858E-16  0.1092399E-01
    1      -22.682177   1.000000
    2      -22.661930   1.000000
    3      -22.660549   1.000000
    4       -2.211884   1.000000
    5        1.712126   1.000000
    6        2.928353   1.000000
    7        3.042267   1.000000
    8        4.219484   1.000000
    9        4.308686   1.000000
   10        4.421810   1.000000
   11        6.830437   1.000000
   12        7.049965   1.000000
   13        9.690840   0.000000
   14       10.539935   0.000000
   15       10.576624   0.000000
   16       11.027520   0.000000

 -0.3076923E+00  0.7692308E-01  0.1420674E-16  0.1092399E-01
    1      -22.678585   1.000000
    2      -22.662220   1.000000
    3      -22.660599   1.000000
    4       -2.535384   1.000000
    5        2.014619   1.000000
    6        2.890541   1.000000
    7        3.114758   1.000000
    8        4.232039   1.000000
    9        4.325757   1.000000
   10        4.747995   1.000000
   11        6.824982   1.000000
   12        7.163025   1.000000
   13        9.627021   0.000000
   14       10.369531   0.000000
   15       10.489955   0.000000
   16       11.519644   0.000000

 -0.2307692E+00  0.7692308E-01  0.1386262E-16  0.1092399E-01
    1      -22.673774   1.000000
    2      -22.662427   1.000000
    3      -22.660828   1.000000
    4       -2.904183   1.000000
    5        2.352204   1.000000
    6        2.894215   1.000000
    7        3.187692   1.000000
    8        4.208364   1.000000
    9        4.297946   1.000000
   10        5.302045   1.000000
   11        6.873662   1.000000
   12        7.340176   1.000000
   13        9.599078   0.000000
   14       10.156056   0.000000
   15       10.313113   0.000000
   16       11.848148   0.000000

 -0.1538462E+00  0.7692308E-01  0.6172858E-17  0.1092399E-01
    1      -22.668852   1.000000
    2      -22.662474   1.000000
    3      -22.661163   1.000000
    4       -3.232109   1.000000
    5        2.662299   1.000000
    6        2.946927   1.000000
    7        3.242538   1.000000
    8        4.140422   1.000000
    9        4.221505   1.000000
   10        6.036466   1.000000
   11        7.017443   1.000000
   12        7.542594   1.000000
   13        9.462307   1.000000
   14       10.016360   0.000000
   15       10.299608   0.000000
   16       11.337473   0.000000

 -0.7692308E-01  0.7692308E-01 -0.1711228E-18  0.5461994E-02
    1      -22.665054   1.000000
    2      -22.662284   1.000000
    3      -22.661550   1.000000
    4       -3.466726   1.000000
    5        2.921539   1.000000
    6        3.040141   1.000000
    7        3.236583   1.000000
    8        4.067500   1.000000
    9        4.120567   1.000000
   10        6.781288   1.000000
   11        7.309516   1.000000
   12        7.682613   1.000000
   13        9.176205   1.000000
   14       10.034498   0.000000
   15       10.442922   0.000000
   16       10.876279   0.000000

  0.1538462E+00  0.1538462E+00  0.2539001E-17  0.2730997E-02
    1      -22.666839   1.000000
    2      -22.662464   1.000000
    3      -22.662464   1.000000
    4       -3.296322   1.000000
    5        2.471121   1.000000
    6        3.299967   1.000000
    7        3.299967   1.000000
    8        4.110250   1.000000
    9        4.127375   1.000000
   10        6.556969   1.000000
   11        7.136498   1.000000
   12        7.136498   1.000000
   13        9.116249   1.000000
   14       10.081615   0.000000
   15       10.490289   0.000000
   16       11.370716   0.000000

  0.2307692E+00  0.1538462E+00 -0.3157565E-17  0.1092399E-01
    1      -22.670134   1.000000
    2      -22.662577   1.000000
    3      -22.662487   1.000000
    4       -3.077089   1.000000
    5        2.234977   1.000000
    6        3.289624   1.000000
    7        3.326101   1.000000
    8        4.134207   1.000000
    9        4.209764   1.000000
   10        6.007540   1.000000
   11        6.946781   1.000000
   12        6.957836   1.000000
   13        9.288684   1.000000
   14       10.077905   0.000000
   15       10.337147   0.000000
   16       11.736956   0.000000

  0.3076923E+00  0.1538462E+00 -0.1137961E-16  0.1092399E-01
    1      -22.674425   1.000000
    2      -22.662570   1.000000
    3      -22.662450   1.000000
    4       -2.774438   1.000000
    5        2.035058   1.000000
    6        3.177562   1.000000
    7        3.307837   1.000000
    8        4.197865   1.000000
    9        4.282016   1.000000
   10        5.348190   1.000000
   11        6.772802   1.000000
   12        6.831224   1.000000
   13        9.494987   1.000000
   14       10.256731   0.000000
   15       10.288824   0.000000
   16       11.865163   0.000000

  0.3846154E+00  0.1538462E+00 -0.5191589E-17  0.1092399E-01
    1      -22.678461   1.000000
    2      -22.662940   1.000000
    3      -22.662120   1.000000
    4       -2.441426   1.000000
    5        1.870015   1.000000
    6        3.039890   1.000000
    7        3.260625   1.000000
    8        4.250975   1.000000
    9        4.310798   1.000000
   10        4.802547   1.000000
   11        6.612809   1.000000
   12        6.793412   1.000000
   13        9.514397   0.998585
   14       10.321180   0.000000
   15       10.767066   0.000000
   16       11.365578   0.000000

  0.4615385E+00  0.1538462E+00  0.2342218E-17  0.1092399E-01
    1      -22.681304   1.000000
    2      -22.663543   1.000000
    3      -22.661647   1.000000
    4       -2.157860   1.000000
    5        1.742219   1.000000
    6        2.943775   1.000000
    7        3.182403   1.000000
    8        4.233020   1.000000
    9        4.320565   1.000000
   10        4.490789   1.000000
   11        6.500868   1.000000
   12        6.801270   1.000000
   13        9.556005   0.001874
   14       10.510097   0.000000
   15       10.681821   0.000000
   16       11.274066   0.000000

 -0.4615385E+00  0.1538462E+00 -0.1472162E-16  0.1092399E-01
    1      -22.682378   1.000000
    2      -22.664210   1.000000
    3      -22.661153   1.000000
    4       -2.019583   1.000000
    5        1.683465   1.000000
    6        2.933964   1.000000
    7        3.075960   1.000000
    8        4.150552   1.000000
    9        4.344542   1.000000
   10        4.435336   1.000000
   11        6.424018   1.000000
   12        6.831762   1.000000
   13        9.699675   0.000000
   14       10.273927   0.000000
   15       10.688977   0.000000
   16       11.539025   0.000000

 -0.3846154E+00  0.1538462E+00  0.1868970E-16  0.1092399E-01
    1      -22.681508   1.000000
    2      -22.664732   1.000000
    3      -22.660748   1.000000
    4       -2.087072   1.000000
    5        1.735871   1.000000
    6        2.963759   1.000000
    7        3.017646   1.000000
    8        4.148913   1.000000
    9        4.380103   1.000000
   10        4.503752   1.000000
   11        6.351795   1.000000
   12        6.895728   1.000000
   13        9.787219   0.000000
   14       10.324363   0.000000
   15       10.678933   0.000000
   16       11.511071   0.000000

 -0.3076923E+00  0.1538462E+00  0.1287800E-16  0.1092399E-01
    1      -22.678963   1.000000
    2      -22.664906   1.000000
    3      -22.660510   1.000000
    4       -2.330264   1.000000
    5        1.894380   1.000000
    6        2.876721   1.000000
    7        3.158560   1.000000
    8        4.185725   1.000000
    9        4.397961   1.000000
   10        4.736858   1.000000
   11        6.278800   1.000000
   12        7.018929   1.000000
   13        9.801862   0.000000
   14       10.497220   0.000000
   15       10.744205   0.000000
   16       11.347481   0.000000

 -0.2307692E+00  0.1538462E+00  0.1253388E-16  0.1092399E-01
    1      -22.675411   1.000000
    2      -22.664590   1.000000
    3      -22.660514   1.000000
    4       -2.657353   1.000000
    5        2.121014   1.000000
    6        2.839026   1.000000
    7        3.287691   1.000000
    8        4.188486   1.000000
    9        4.374406   1.000000
   10        5.171370   1.000000
   11        6.265033   1.000000
   12        7.205818   1.000000
   13        9.927793   0.000000
   14       10.262293   0.000000
   15       10.622648   0.000000
   16       11.477948   0.000000

 -0.1538462E+00  0.1538462E+00 -0.9033674E-17  0.5461994E-02
    1      -22.671767   1.000000
    2      -22.663697   1.000000
    3      -22.660749   1.000000
    4       -2.978872   1.000000
    5        2.385660   1.000000
    6        2.862804   1.000000
    7        3.331911   1.000000
    8        4.159471   1.000000
    9        4.309226   1.000000
   10        5.676266   1.000000
   11        6.466302   1.000000
   12        7.411692   1.000000
   13        9.968700   0.000000
   14       10.069865   0.000000
   15       10.274666   0.000000
   16       11.291583   0.000000

  0.2307692E+00  0.2307692E+00  0.3808502E-17  0.2730997E-02
    1      -22.672008   1.000000
    2      -22.662982   1.000000
    3      -22.662982   1.000000
    4       -2.916168   1.000000
    5        2.008223   1.000000
    6        3.430718   1.000000
    7        3.430718   1.000000
    8        4.043433   1.000000
    9        4.278231   1.000000
   10        5.907037   1.000000
   11        6.738359   1.000000
   12        6.738359   1.000000
   13        9.057422   1.000000
   14       10.214364   0.000000
   15       10.223013   0.000000
   16       11.868067   0.000000

  0.3076923E+00  0.2307692E+00  0.5515146E-17  0.1092399E-01
    1      -22.675217   1.000000
    2      -22.663341   1.000000
    3      -22.663126   1.000000
    4       -2.675305   1.000000
    5        1.851621   1.000000
    6        3.407152   1.000000
    7        3.468756   1.000000
    8        4.048778   1.000000
    9        4.357397   1.000000
   10        5.476376   1.000000
   11        6.536493   1.000000
   12        6.606423   1.000000
   13        9.155743   1.000000
   14       10.092479   0.000000
   15       10.382563   0.000000
   16       11.872301   0.000000

  0.3846154E+00  0.2307692E+00 -0.1305248E-16  0.1092399E-01
    1      -22.678310   1.000000
    2      -22.664142   1.000000
    3      -22.662955   1.000000
    4       -2.399802   1.000000
    5        1.783549   1.000000
    6        3.249904   1.000000
    7        3.445628   1.000000
    8        4.146414   1.000000
    9        4.400561   1.000000
   10        4.969234   1.000000
   11        6.302001   1.000000
   12        6.566407   1.000000
   13        9.279377   1.000000
   14       10.105447   0.000000
   15       10.809606   0.000000
   16       11.466195   0.000000

  0.4615385E+00  0.2307692E+00 -0.5518669E-17  0.1092399E-01
    1      -22.680335   1.000000
    2      -22.665479   1.000000
    3      -22.662519   1.000000
    4       -2.152126   1.000000
    5        1.802541   1.000000
    6        3.065797   1.000000
    7        3.361796   1.000000
    8        4.197325   1.000000
    9        4.418108   1.000000
   10        4.603963   1.000000
   11        6.097640   1.000000
   12        6.581875   1.000000
   13        9.334174   1.000000
   14       10.306744   0.000000
   15       10.886460   0.000000
   16       11.371973   0.000000

 -0.4615385E+00  0.2307692E+00  0.2092892E-16  0.1092399E-01
    1      -22.680873   1.000000
    2      -22.667030   1.000000
    3      -22.661926   1.000000
    4       -2.000021   1.000000
    5        1.868124   1.000000
    6        2.926322   1.000000
    7        3.226720   1.000000
    8        4.083254   1.000000
    9        4.441534   1.000000
   10        4.571719   1.000000
   11        5.945722   1.000000
   12        6.618462   1.000000
   13        9.447424   1.000000
   14       10.432556   0.000000
   15       10.626406   0.000000
   16       11.616766   0.000000

 -0.3846154E+00  0.2307692E+00 -0.1317063E-16  0.1092399E-01
    1      -22.680012   1.000000
    2      -22.668237   1.000000
    3      -22.661300   1.000000
    4       -1.992127   1.000000
    5        1.901730   1.000000
    6        2.919430   1.000000
    7        3.072825   1.000000
    8        4.041574   1.000000
    9        4.468350   1.000000
   10        4.675094   1.000000
   11        5.835034   1.000000
   12        6.685807   1.000000
   13        9.653668   0.000000
   14       10.237831   0.000000
   15       10.787381   0.000000
   16       11.536191   0.000000

 -0.3076923E+00  0.2307692E+00 -0.6982610E-17  0.1092399E-01
    1      -22.678404   1.000000
    2      -22.668376   1.000000
    3      -22.660782   1.000000
    4       -2.132964   1.000000
    5        1.904077   1.000000
    6        2.939207   1.000000
    7        3.056456   1.000000
    8        4.108399   1.000000
    9        4.472741   1.000000
   10        4.840288   1.000000
   11        5.766508   1.000000
   12        6.812511   1.000000
   13        9.792575   0.000000
   14       10.515155   0.000000
   15       10.673228   0.000000
   16       11.433379   0.000000

 -0.2307692E+00  0.2307692E+00  0.1067285E-16  0.5461994E-02
    1      -22.676843   1.000000
    2      -22.666971   1.000000
    3      -22.660498   1.000000
    4       -2.378150   1.000000
    5        1.964183   1.000000
    6        2.855613   1.000000
    7        3.220854   1.000000
    8        4.171111   1.000000
    9        4.439151   1.000000
   10        5.040794   1.000000
   11        5.852975   1.000000
   12        7.001186   1.000000
   13        9.890113   0.000000
   14       10.461726   0.000000
   15       11.072520   0.000000
   16       11.313877   0.000000

  0.3076923E+00  0.3076923E+00  0.5078002E-17  0.2730997E-02
    1      -22.677635   1.000000
    2      -22.663557   1.000000
    3      -22.663557   1.000000
    4       -2.506891   1.000000
    5        1.739176   1.000000
    6        3.571963   1.000000
    7        3.571963   1.000000
    8        3.891666   1.000000
    9        4.453312   1.000000
   10        5.283823   1.000000
   11        6.442038   1.000000
   12        6.442038   1.000000
   13        8.959721   1.000000
   14        9.907295   0.000000
   15       10.453688   0.000000
   16       11.813211   0.000000

  0.3846154E+00  0.3076923E+00  0.5874530E-17  0.1092399E-01
    1      -22.680103   1.000000
    2      -22.664161   1.000000
    3      -22.663643   1.000000
    4       -2.306341   1.000000
    5        1.733313   1.000000
    6        3.477085   1.000000
    7        3.600127   1.000000
    8        3.960343   1.000000
    9        4.517523   1.000000
   10        4.906724   1.000000
   11        6.243552   1.000000
   12        6.374931   1.000000
   13        9.006260   1.000000
   14        9.835540   0.000000
   15       10.690142   0.000000
   16       11.522103   0.000000

  0.4615385E+00  0.3076923E+00  0.1003031E-16  0.1092399E-01
    1      -22.681429   1.000000
    2      -22.665663   1.000000
    3      -22.663378   1.000000
    4       -2.119775   1.000000
    5        1.839352   1.000000
    6        3.263146   1.000000
    7        3.544929   1.000000
    8        4.099347   1.000000
    9        4.540020   1.000000
   10        4.557659   1.000000
   11        5.945172   1.000000
   12        6.381232   1.000000
   13        9.090869   1.000000
   14        9.981222   0.000000
   15       10.992005   0.000000
   16       11.317053   0.000000

 -0.4615385E+00  0.3076923E+00  0.9844185E-17  0.1092399E-01
    1      -22.681123   1.000000
    2      -22.667917   1.000000
    3      -22.662815   1.000000
    4       -1.989586   1.000000
    5        2.015417   1.000000
    6        3.041726   1.000000
    7        3.412110   1.000000
    8        3.987006   1.000000
    9        4.550798   1.000000
   10        4.583779   1.000000
   11        5.658998   1.000000
   12        6.417822   1.000000
   13        9.191511   1.000000
   14       10.369536   0.000000
   15       10.609510   0.000000
   16       11.347012   0.000000

 -0.3846154E+00  0.3076923E+00 -0.2425537E-16  0.1092399E-01
    1      -22.679439   1.000000
    2      -22.670240   1.000000
    3      -22.662083   1.000000
    4       -1.943701   1.000000
    5        2.130246   1.000000
    6        2.865379   1.000000
    7        3.237217   1.000000
    8        3.905201   1.000000
    9        4.553626   1.000000
   10        4.806733   1.000000
   11        5.442837   1.000000
   12        6.488166   1.000000
   13        9.379432   1.000000
   14       10.324964   0.000000
   15       10.841801   0.000000
   16       11.319516   0.000000

 -0.3076923E+00  0.3076923E+00 -0.1806735E-16  0.5461994E-02
    1      -22.677976   1.000000
    2      -22.670883   1.000000
    3      -22.661342   1.000000
    4       -1.993717   1.000000
    5        2.035754   1.000000
    6        2.902797   1.000000
    7        3.067161   1.000000
    8        3.986287   1.000000
    9        4.529457   1.000000
   10        4.941100   1.000000
   11        5.426062   1.000000
   12        6.620104   1.000000
   13        9.633748   0.000000
   14       10.268477   0.000000
   15       10.845015   0.000000
   16       11.285803   0.000000

  0.3846154E+00  0.3846154E+00  0.6347503E-17  0.2730997E-02
    1      -22.682375   1.000000
    2      -22.664034   1.000000
    3      -22.664034   1.000000
    4       -2.187511   1.000000
    5        1.772524   1.000000
    6        3.688204   1.000000
    7        3.688204   1.000000
    8        3.742106   1.000000
    9        4.613119   1.000000
   10        4.616828   1.000000
   11        6.268485   1.000000
   12        6.268485   1.000000
   13        8.872810   1.000000
   14        9.638760   0.000000
   15       10.591840   0.000000
   16       11.451193   0.000000

  0.4615385E+00  0.3846154E+00  0.4608416E-17  0.1092399E-01
    1      -22.683639   1.000000
    2      -22.664748   1.000000
    3      -22.664016   1.000000
    4       -2.073710   1.000000
    5        1.905484   1.000000
    6        3.485198   1.000000
    7        3.687555   1.000000
    8        3.930603   1.000000
    9        4.294273   1.000000
   10        4.651374   1.000000
   11        6.091509   1.000000
   12        6.248163   1.000000
   13        8.899883   1.000000
   14        9.648974   0.000000
   15       10.756507   0.000000
   16       11.229886   0.000000

 -0.4615385E+00  0.3846154E+00  0.1983298E-17  0.1092399E-01
    1      -22.683189   1.000000
    2      -22.666565   1.000000
    3      -22.663624   1.000000
    4       -1.988425   1.000000
    5        2.083313   1.000000
    6        3.268199   1.000000
    7        3.591379   1.000000
    8        3.875520   1.000000
    9        4.338720   1.000000
   10        4.647185   1.000000
   11        5.768542   1.000000
   12        6.276584   1.000000
   13        8.989323   1.000000
   14        9.934392   0.000000
   15       10.763306   0.000000
   16       11.176162   0.000000

 -0.3846154E+00  0.3846154E+00  0.2339489E-16  0.5461994E-02
    1      -22.681264   1.000000
    2      -22.668962   1.000000
    3      -22.662927   1.000000
    4       -1.943517   1.000000
    5        2.204717   1.000000
    6        3.013306   1.000000
    7        3.425144   1.000000
    8        3.805979   1.000000
    9        4.615701   1.000000
   10        4.635691   1.000000
   11        5.471958   1.000000
   12        6.349342   1.000000
   13        9.142524   1.000000
   14       10.452083   0.000000
   15       10.512729   0.000000
   16       11.096821   0.000000

  0.4615385E+00  0.4615385E+00  0.7617004E-17  0.2730997E-02
    1      -22.685094   1.000000
    2      -22.664298   1.000000
    3      -22.664298   1.000000
    4       -2.030232   1.000000
    5        2.003077   1.000000
    6        3.700485   1.000000
    7        3.751994   1.000000
    8        3.751994   1.000000
    9        4.012045   1.000000
   10        4.710655   1.000000
   11        6.197536   1.000000
   12        6.197536   1.000000
   13        8.821212   1.000000
   14        9.480135   1.000000
   15       10.543281   0.000000
   16       11.186443   0.000000

 -0.4615385E+00  0.4615385E+00  0.2241027E-16  0.5461994E-02
    1      -22.684933   1.000000
    2      -22.664965   1.000000
    3      -22.664160   1.000000
    4       -2.000806   1.000000
    5        2.078197   1.000000
    6        3.516129   1.000000
    7        3.717174   1.000000
    8        3.832649   1.000000
    9        4.028799   1.000000
   10        4.705731   1.000000
   11        6.048287   1.000000
   12        6.208304   1.000000
   13        8.861999   1.000000
   14        9.582156   0.000000
   15       10.692769   0.000000
   16       11.117776   0.000000

  0.2307692E+00  0.1538462E+00  0.7692308E-01  0.1092399E-01
    1      -22.668573   1.000000
    2      -22.662791   1.000000
    3      -22.661569   1.000000
    4       -3.212977   1.000000
    5        2.485098   1.000000
    6        3.103859   1.000000
    7        3.310543   1.000000
    8        4.131692   1.000000
    9        4.200677   1.000000
   10        6.174832   1.000000
   11        6.882939   1.000000
   12        7.388230   1.000000
   13        9.464877   1.000000
   14        9.961944   0.000000
   15       10.387905   0.000000
   16       11.304997   0.000000

  0.3076923E+00  0.1538462E+00  0.7692308E-01  0.2184797E-01
    1      -22.672588   1.000000
    2      -22.663267   1.000000
    3      -22.661214   1.000000
    4       -2.925518   1.000000
    5        2.245404   1.000000
    6        3.008894   1.000000
    7        3.312699   1.000000
    8        4.182422   1.000000