 vasp.6.0.8 29Jun18 (build Jun 13 2019 12:54:44) complex

 executed on      IFC18_CrayMPICH date 2021.12.05  14:21:53
 running   64 mpi-ranks, with    1 threads/rank
 distrk:  each k-point on   16 cores,    4 groups
 distr:  one band on NCORES_PER_BAND=   4 cores,    4 groups


--------------------------------------------------------------------------------------------------------


 INCAR:
 POTCAR:    PAW_PBE Hf_pv 06Sep2000
 POTCAR:    PAW_PBE Sb 06Sep2000
 POTCAR:    PAW_PBE Pt 04Feb2005
 POTCAR:    PAW_PBE Hf_pv 06Sep2000
   VRHFIN =Hf: 5p6s5d
   LEXCH  = PE
   EATOM  =   860.9206 eV,   63.2759 Ry

   TITEL  = PAW_PBE Hf_pv 06Sep2000
   LULTRA =        F    use ultrasoft PP ?
   IUNSCR =        1    unscreen: 0-lin 1-nonlin 2-no
   RPACOR =    2.500    partial core radius
   POMASS =  178.490; ZVAL   =   10.000    mass and valenz
   RCORE  =    2.600    outmost cutoff radius
   RWIGS  =    3.050; RWIGS  =    1.614    wigner-seitz radius (au A)
   ENMAX  =  220.334; ENMIN  =  165.250 eV
   RCLOC  =    2.212    cutoff for local pot
   LCOR   =        T    correct aug charges
   LPAW   =        T    paw PP
   EAUG   =  380.878
   DEXC   =    0.000
   RMAX   =    2.665    core radius for proj-oper
   RAUG   =    1.300    factor for augmentation sphere
   RDEP   =    2.681    radius for radial grids
   RDEPT  =    2.139    core radius for aug-charge

   Atomic configuration
   15 entries
     n  l   j            E        occ.
     1  0  0.50    -65259.4397   2.0000
     2  0  0.50    -11157.9884   2.0000
     2  1  1.50     -9795.2114   6.0000
     3  0  0.50     -2541.4060   2.0000
     3  1  1.50     -2134.4772   6.0000
     3  2  2.50     -1653.5420  10.0000
     4  0  0.50      -510.9577   2.0000
     4  1  1.50      -377.5024   6.0000
     4  2  2.50      -205.2086  10.0000
     4  3  3.50       -15.4906  14.0000
     5  0  0.50       -65.6020   2.0000
     5  1  1.50       -34.2798   6.0000
     5  2  2.50        -1.9877   3.0000
     6  0  0.50        -4.7357   1.0000
     5  3  2.50        -1.3606   0.0000
   Description
     l       E           TYP  RCUT    TYP  RCUT
     1    -34.2797769     23  2.500
     1    -35.6403595     23  2.500
     2     -1.9876655     23  2.500
     2      0.0744675     23  2.500
     0     -4.7356889     23  2.600
     0      3.2364748     23  2.600
  local pseudopotential read in
  partial core-charges read in
  partial kinetic energy density read in
  atomic valenz-charges read in
  non local Contribution for L=           1  read in
    real space projection operators read in
  non local Contribution for L=           1  read in
    real space projection operators read in
  non local Contribution for L=           2  read in
    real space projection operators read in
  non local Contribution for L=           2  read in
    real space projection operators read in
  non local Contribution for L=           0  read in
    real space projection operators read in
  non local Contribution for L=           0  read in
    real space projection operators read in
    PAW grid and wavefunctions read in

   number of l-projection  operators is LMAX  =           6
   number of lm-projection operators is LMMAX =          18

 POTCAR:    PAW_PBE Sb 06Sep2000
   VRHFIN =Sb: s2p3
   LEXCH  = PE
   EATOM  =   149.9515 eV,   11.0211 Ry

   TITEL  = PAW_PBE Sb 06Sep2000
   LULTRA =        F    use ultrasoft PP ?
   IUNSCR =        1    unscreen: 0-lin 1-nonlin 2-no
   RPACOR =    2.200    partial core radius
   POMASS =  121.750; ZVAL   =    5.000    mass and valenz
   RCORE  =    2.300    outmost cutoff radius
   RWIGS  =    2.980; RWIGS  =    1.577    wigner-seitz radius (au A)
   ENMAX  =  172.069; ENMIN  =  129.052 eV
   ICORE  =        3    local potential
   LCOR   =        T    correct aug charges
   LPAW   =        T    paw PP
   EAUG   =  380.513
   DEXC   =    0.000
   RMAX   =    2.346    core radius for proj-oper
   RAUG   =    1.300    factor for augmentation sphere
   RDEP   =    2.360    radius for radial grids
   RDEPT  =    2.192    core radius for aug-charge

   Atomic configuration
   13 entries
     n  l   j            E        occ.
     1  0  0.50    -30298.2797   2.0000
     2  0  0.50     -4610.2252   2.0000
     2  1  1.50     -4138.3407   6.0000
     3  0  0.50      -903.8815   2.0000
     3  1  1.50      -750.1337   6.0000
     3  2  2.50      -515.7092  10.0000
     4  0  0.50      -148.8034   2.0000
     4  1  1.50      -101.7581   6.0000
     4  2  2.50       -33.5048  10.0000
     5  0  0.50       -12.8298   2.0000
     5  1  0.50        -4.8276   3.0000
     5  2  1.50        -4.0817   0.0000
     4  3  2.50        -4.0817   0.0000
   Description
     l       E           TYP  RCUT    TYP  RCUT
     0    -12.8297861     23  2.300
     0     13.6058260     23  2.300
     1     -4.8275512     23  2.300
     1     -0.7245443     23  2.300
     2     -4.0817478     23  2.300
     3     -1.3605826     23  2.300
  local pseudopotential read in
  partial core-charges read in
  partial kinetic energy density read in
  atomic valenz-charges read in
  non local Contribution for L=           0  read in
    real space projection operators read in
  non local Contribution for L=           0  read in
    real space projection operators read in
  non local Contribution for L=           1  read in
    real space projection operators read in
  non local Contribution for L=           1  read in
    real space projection operators read in
  non local Contribution for L=           2  read in
    real space projection operators read in
    PAW grid and wavefunctions read in

   number of l-projection  operators is LMAX  =           5
   number of lm-projection operators is LMMAX =          13

 POTCAR:    PAW_PBE Pt 04Feb2005
   VRHFIN =Pt: s1d9
   LEXCH  = PE
   EATOM  =   729.1176 eV,   53.5886 Ry

   TITEL  = PAW_PBE Pt 04Feb2005
   LULTRA =        F    use ultrasoft PP ?
   IUNSCR =        1    unscreen: 0-lin 1-nonlin 2-no
   RPACOR =    2.330    partial core radius
   POMASS =  195.080; ZVAL   =   10.000    mass and valenz
   RCORE  =    2.600    outmost cutoff radius
   RWIGS  =    2.750; RWIGS  =    1.455    wigner-seitz radius (au A)
   ENMAX  =  230.283; ENMIN  =  172.712 eV
   ICORE  =        3    local potential
   LCOR   =        T    correct aug charges
   LPAW   =        T    paw PP
   EAUG   =  358.966
   DEXC   =    0.000
   RMAX   =    2.658    core radius for proj-oper
   RAUG   =    1.300    factor for augmentation sphere
   RDEP   =    2.761    radius for radial grids
   RDEPT  =    2.203    core radius for aug-charge

   Atomic configuration
   16 entries
     n  l   j            E        occ.
     1  0  0.50    -78401.1885   2.0000
     2  0  0.50    -13770.7750   2.0000
     2  1  1.50    -11931.0468   6.0000
     3  0  0.50     -3234.7234   2.0000
     3  1  1.50     -2699.2216   6.0000
     3  2  2.50     -2119.5714  10.0000
     4  0  0.50      -695.1528   2.0000
     4  1  1.50      -519.6034   6.0000
     4  2  2.50      -306.6786  10.0000
     4  3  3.50       -70.1041  14.0000
     5  0  0.50      -101.7747   2.0000
     5  1  1.50       -55.9873   6.0000
     5  2  2.50        -6.1423   9.0000
     6  0  0.50        -5.6573   1.0000
     6  1  1.50        -6.8029   0.0000
     5  3  2.50        -1.3606   0.0000
   Description
     l       E           TYP  RCUT    TYP  RCUT
     2     -6.1423404     23  2.500
     2     -7.5029230     23  2.500
     0     -5.6573207     23  2.500
     0      0.7416693     23  2.500
     1     -2.7211652     23  2.600
     1     20.4087390     23  2.600
     3     -1.3605826     23  2.500
  local pseudopotential read in
  partial core-charges read in
  partial kinetic energy density read in
  atomic valenz-charges read in
  non local Contribution for L=           2  read in
    real space projection operators read in
  non local Contribution for L=           2  read in
    real space projection operators read in
  non local Contribution for L=           0  read in
    real space projection operators read in
  non local Contribution for L=           0  read in
    real space projection operators read in
  non local Contribution for L=           1  read in
    real space projection operators read in
  non local Contribution for L=           1  read in
    real space projection operators read in
    PAW grid and wavefunctions read in

   number of l-projection  operators is LMAX  =           6
   number of lm-projection operators is LMMAX =          18


 -----------------------------------------------------------------------------
|                                                                             |
|  ADVICE TO THIS USER RUNNING 'VASP/VAMP'   (HEAR YOUR MASTER'S VOICE ...):  |
|                                                                             |
|      You enforced a specific xc-type in the INCAR file,                     |
|      a different type was found on the POTCAR file                          |
|          I HOPE YOU KNOW, WHAT YOU ARE  DOING                               |
|                                                                             |
 -----------------------------------------------------------------------------

  PAW_PBE Hf_pv 06Sep2000               :
 energy of atom  1       EATOM= -860.9206
 kinetic energy error for atom=    0.0004 (will be added to EATOM!!)
  PAW_PBE Sb 06Sep2000                  :
 energy of atom  2       EATOM= -149.9515
 kinetic energy error for atom=    0.0002 (will be added to EATOM!!)
  PAW_PBE Pt 04Feb2005                  :
 energy of atom  3       EATOM= -729.1176
 kinetic energy error for atom=    0.0010 (will be added to EATOM!!)


 POSCAR: Hf1 Sb1 Pt1
  positions in direct lattice
  No initial velocities read in
 exchange correlation table for  LEXCH =       14
   RHO(1)=    0.500       N(1)  =     2000
   RHO(2)=  100.500       N(2)  =     4000



--------------------------------------------------------------------------------------------------------


 ion  position               nearest neighbor table
   1  0.750  0.750  0.750-   3 2.72   3 2.72   3 2.72   3 2.72   2 3.14   2 3.14   2 3.14   2 3.14
                             2 3.14   2 3.14
   2  0.250  0.250  0.250-   3 2.72   3 2.72   3 2.72   3 2.72   1 3.14   1 3.14   1 3.14   1 3.14
                             1 3.14   1 3.14
   3  0.000  0.000  0.000-   1 2.72   1 2.72   2 2.72   2 2.72   1 2.72   1 2.72   2 2.72   2 2.72


  LATTYP: Found a face centered cubic cell.
 ALAT       =     6.2706579012

  Lattice vectors:

 A1 = (   0.0000000000,   3.1353289506,   3.1353289506)
 A2 = (   3.1353289506,   0.0000000000,   3.1353289506)
 A3 = (   3.1353289506,   3.1353289506,   0.0000000000)


Analysis of symmetry for initial positions (statically):
=====================================================================
 Subroutine PRICEL returns:
 Original cell was already a primitive cell.


 Routine SETGRP: Setting up the symmetry group for a
 face centered cubic supercell.


 Subroutine GETGRP returns: Found 24 space group operations
 (whereof 24 operations were pure point group operations)
 out of a pool of 48 trial point group operations.


The static configuration has the point symmetry T_d .


Analysis of symmetry for dynamics (positions and initial velocities):
=====================================================================
 Subroutine PRICEL returns:
 Original cell was already a primitive cell.


 Routine SETGRP: Setting up the symmetry group for a
 face centered cubic supercell.


 Subroutine GETGRP returns: Found 24 space group operations
 (whereof 24 operations were pure point group operations)
 out of a pool of 48 trial point group operations.


The dynamic configuration has the point symmetry T_d .


 Subroutine INISYM returns: Found 24 space group operations
 (whereof 24 operations are pure point group operations),
 and found     1 'primitive' translations


----------------------------------------------------------------------------------------

                                     Primitive cell

  volume of cell :      61.6424

  direct lattice vectors                    reciprocal lattice vectors
     0.000000000  3.135328951  3.135328951    -0.159472900  0.159472900  0.159472900
     3.135328951  0.000000000  3.135328951     0.159472900 -0.159472900  0.159472900
     3.135328951  3.135328951  0.000000000     0.159472900  0.159472900 -0.159472900

  length of vectors
     4.434024724  4.434024724  4.434024724     0.276215165  0.276215165  0.276215165

  position of ions in fractional coordinates (direct lattice)
     0.750000000  0.750000000  0.750000000
     0.250000000  0.250000000  0.250000000
     0.000000000  0.000000000  0.000000000

  ion indices of the primitive-cell ions
   primitive index   ion index
                 1           1
                 2           2
                 3           3

----------------------------------------------------------------------------------------



 KPOINTS: KPOINTS

Automatic generation of k-mesh.
Space group operators:
 irot       det(A)        alpha          n_x          n_y          n_z        tau_x        tau_y        tau_z
    1     1.000000     0.000001     1.000000     0.000000     0.000000     0.000000     0.000000     0.000000
    2     1.000000   120.000000    -0.577350    -0.577350    -0.577350     0.000000     0.000000     0.000000
    3     1.000000   120.000000     0.577350     0.577350     0.577350     0.000000     0.000000     0.000000
    4    -1.000000    90.000000    -0.000000    -0.000000    -1.000000     0.000000     0.000000     0.000000
    5    -1.000000   180.000000     0.000000     0.707107     0.707107     0.000000     0.000000     0.000000
    6    -1.000000    90.000000    -0.000000     1.000000    -0.000000     0.000000     0.000000     0.000000
    7     1.000000   180.000000     0.000000     0.000000     1.000000     0.000000     0.000000     0.000000
    8     1.000000   120.000000    -0.577350     0.577350     0.577350     0.000000     0.000000     0.000000
    9     1.000000   120.000000    -0.577350     0.577350    -0.577350     0.000000     0.000000     0.000000
   10    -1.000000    90.000000     0.000000     0.000000     1.000000     0.000000     0.000000     0.000000
   11    -1.000000    90.000000    -1.000000     0.000000     0.000000     0.000000     0.000000     0.000000
   12    -1.000000   180.000000     0.707107     0.000000     0.707107     0.000000     0.000000     0.000000
   13     1.000000   120.000000     0.577350    -0.577350     0.577350     0.000000     0.000000     0.000000
   14     1.000000   120.000000    -0.577350    -0.577350     0.577350     0.000000     0.000000     0.000000
   15     1.000000   180.000000     1.000000     0.000000     0.000000     0.000000     0.000000     0.000000
   16    -1.000000    90.000000     0.000000    -1.000000     0.000000     0.000000     0.000000     0.000000
   17    -1.000000   180.000000     0.707107     0.707107    -0.000000     0.000000     0.000000     0.000000
   18    -1.000000    90.000000     1.000000     0.000000     0.000000     0.000000     0.000000     0.000000
   19     1.000000   120.000000     0.577350    -0.577350    -0.577350     0.000000     0.000000     0.000000
   20     1.000000   180.000000    -0.000000     1.000000     0.000000     0.000000     0.000000     0.000000
   21     1.000000   120.000000     0.577350     0.577350    -0.577350     0.000000     0.000000     0.000000
   22    -1.000000   180.000000    -0.000000    -0.707107     0.707107     0.000000     0.000000     0.000000
   23    -1.000000   180.000000     0.707107    -0.707107     0.000000     0.000000     0.000000     0.000000
   24    -1.000000   180.000000     0.707107     0.000000    -0.707107     0.000000     0.000000     0.000000

 Subroutine IBZKPT returns following result:
 ===========================================

 Found     84 irreducible k-points:

 Following reciprocal coordinates:
            Coordinates               Weight
  0.000000  0.000000  0.000000      1.000000
  0.076923 -0.000000 -0.000000      8.000000
  0.153846 -0.000000  0.000000      8.000000
  0.230769  0.000000 -0.000000      8.000000
  0.307692 -0.000000  0.000000      8.000000
  0.384615 -0.000000  0.000000      8.000000
  0.461538  0.000000 -0.000000      8.000000
  0.076923  0.076923  0.000000      6.000000
  0.153846  0.076923 -0.000000     24.000000
  0.230769  0.076923 -0.000000     24.000000
  0.307692  0.076923 -0.000000     24.000000
  0.384615  0.076923 -0.000000     24.000000
  0.461538  0.076923 -0.000000     24.000000
 -0.461538  0.076923  0.000000     24.000000
 -0.384615  0.076923  0.000000     24.000000
 -0.307692  0.076923  0.000000     24.000000
 -0.230769  0.076923  0.000000     24.000000
 -0.153846  0.076923  0.000000     24.000000
 -0.076923  0.076923 -0.000000     12.000000
  0.153846  0.153846  0.000000      6.000000
  0.230769  0.153846 -0.000000     24.000000
  0.307692  0.153846 -0.000000     24.000000
  0.384615  0.153846 -0.000000     24.000000
  0.461538  0.153846  0.000000     24.000000
 -0.461538  0.153846 -0.000000     24.000000
 -0.384615  0.153846  0.000000     24.000000
 -0.307692  0.153846  0.000000     24.000000
 -0.230769  0.153846  0.000000     24.000000
 -0.153846  0.153846 -0.000000     12.000000
  0.230769  0.230769  0.000000      6.000000
  0.307692  0.230769  0.000000     24.000000
  0.384615  0.230769 -0.000000     24.000000
  0.461538  0.230769 -0.000000     24.000000
 -0.461538  0.230769  0.000000     24.000000
 -0.384615  0.230769 -0.000000     24.000000
 -0.307692  0.230769 -0.000000     24.000000
 -0.230769  0.230769  0.000000     12.000000
  0.307692  0.307692  0.000000      6.000000
  0.384615  0.307692  0.000000     24.000000
  0.461538  0.307692  0.000000     24.000000
 -0.461538  0.307692  0.000000     24.000000
 -0.384615  0.307692 -0.000000     24.000000
 -0.307692  0.307692 -0.000000     12.000000
  0.384615  0.384615  0.000000      6.000000
  0.461538  0.384615  0.000000     24.000000
 -0.461538  0.384615  0.000000     24.000000
 -0.384615  0.384615  0.000000     12.000000
  0.461538  0.461538  0.000000      6.000000
 -0.461538  0.461538  0.000000     12.000000
  0.230769  0.153846  0.076923     24.000000
  0.307692  0.153846  0.076923     48.000000
  0.384615  0.153846  0.076923     48.000000
  0.461538  0.153846  0.076923     48.000000
 -0.461538  0.153846  0.076923     48.000000
  0.307692  0.230769  0.076923     24.000000
  0.384615  0.230769  0.076923     48.000000
  0.461538  0.230769  0.076923     48.000000
 -0.461538  0.230769  0.076923     48.000000
 -0.384615  0.230769  0.076923     48.000000
 -0.307692  0.230769  0.076923     48.000000
 -0.230769  0.230769  0.076923     48.000000
 -0.153846  0.230769  0.076923     24.000000
  0.384615  0.307692  0.076923     24.000000
  0.461538  0.307692  0.076923     48.000000
 -0.461538  0.307692  0.076923     48.000000
 -0.384615  0.307692  0.076923     48.000000
 -0.307692  0.307692  0.076923     48.000000
 -0.230769  0.307692  0.076923     24.000000
  0.461538  0.384615  0.076923     24.000000
 -0.461538  0.384615  0.076923     48.000000
 -0.384615  0.384615  0.076923     48.000000
 -0.307692  0.384615  0.076923     24.000000
 -0.461538  0.461538  0.076923     24.000000
 -0.384615  0.461538  0.076923     24.000000
  0.461538  0.307692  0.153846     24.000000
 -0.461538  0.307692  0.153846     48.000000
 -0.384615  0.307692  0.153846     48.000000
 -0.461538  0.384615  0.153846     24.000000
 -0.384615  0.384615  0.153846     48.000000
 -0.307692  0.384615  0.153846     48.000000
 -0.230769  0.384615  0.153846     24.000000
 -0.384615  0.461538  0.153846     24.000000
 -0.307692  0.461538  0.153846     24.000000
 -0.307692  0.461538  0.230769     24.000000

 Following cartesian coordinates:
            Coordinates               Weight
  0.000000  0.000000  0.000000      1.000000
 -0.012101  0.012101  0.012101      8.000000
 -0.024203  0.024203  0.024203      8.000000
 -0.036304  0.036304  0.036304      8.000000
 -0.048405  0.048405  0.048405      8.000000
 -0.060507  0.060507  0.060507      8.000000
 -0.072608  0.072608  0.072608      8.000000
 -0.000000  0.000000  0.024203      6.000000
 -0.012101  0.012101  0.036304     24.000000
 -0.024203  0.024203  0.048405     24.000000
 -0.036304  0.036304  0.060507     24.000000
 -0.048405  0.048405  0.072608     24.000000
 -0.060507  0.060507  0.084709     24.000000
  0.084709 -0.084709 -0.060507     24.000000
  0.072608 -0.072608 -0.048405     24.000000
  0.060507 -0.060507 -0.036304     24.000000
  0.048405 -0.048405 -0.024203     24.000000
  0.036304 -0.036304 -0.012101     24.000000
  0.024203 -0.024203 -0.000000     12.000000
  0.000000 -0.000000  0.048405      6.000000
 -0.012101  0.012101  0.060507     24.000000
 -0.024203  0.024203  0.072608     24.000000
 -0.036304  0.036304  0.084709     24.000000
 -0.048405  0.048405  0.096811     24.000000
  0.096811 -0.096811 -0.048405     24.000000
  0.084709 -0.084709 -0.036304     24.000000
  0.072608 -0.072608 -0.024203     24.000000
  0.060507 -0.060507 -0.012101     24.000000
  0.048405 -0.048405  0.000000     12.000000
  0.000000 -0.000000  0.072608      6.000000
 -0.012101  0.012101  0.084709     24.000000
 -0.024203  0.024203  0.096811     24.000000
 -0.036304  0.036304  0.108912     24.000000
  0.108912 -0.108912 -0.036304     24.000000
  0.096811 -0.096811 -0.024203     24.000000
  0.084709 -0.084709 -0.012101     24.000000
  0.072608 -0.072608 -0.000000     12.000000
  0.000000 -0.000000  0.096811      6.000000
 -0.012101  0.012101  0.108912     24.000000
 -0.024203  0.024203  0.121014     24.000000
  0.121014 -0.121014 -0.024203     24.000000
  0.108912 -0.108912 -0.012101     24.000000
  0.096811 -0.096811  0.000000     12.000000
  0.000000 -0.000000  0.121014      6.000000
 -0.012101  0.012101  0.133115     24.000000
  0.133115 -0.133115 -0.012101     24.000000
  0.121014 -0.121014  0.000000     12.000000
 -0.000000  0.000000  0.145216      6.000000
  0.145216 -0.145216 -0.000000     12.000000
  0.000000  0.024203  0.048405     24.000000
 -0.012101  0.036304  0.060507     48.000000
 -0.024203  0.048405  0.072608     48.000000
 -0.036304  0.060507  0.084709     48.000000
  0.108912 -0.084709 -0.060507     48.000000
  0.000000  0.024203  0.072608     24.000000
 -0.012101  0.036304  0.084709     48.000000
 -0.024203  0.048405  0.096811     48.000000
  0.121014 -0.096811 -0.048405     48.000000
  0.108912 -0.084709 -0.036304     48.000000
  0.096811 -0.072608 -0.024203     48.000000
  0.084709 -0.060507 -0.012101     48.000000
  0.072608 -0.048405 -0.000000     24.000000
  0.000000  0.024203  0.096811     24.000000
 -0.012101  0.036304  0.108912     48.000000
  0.133115 -0.108912 -0.036304     48.000000
  0.121014 -0.096811 -0.024203     48.000000
  0.108912 -0.084709 -0.012101     48.000000
  0.096811 -0.072608 -0.000000     24.000000
  0.000000  0.024203  0.121014     24.000000
  0.145216 -0.121014 -0.024203     48.000000
  0.133115 -0.108912 -0.012101     48.000000
  0.121014 -0.096811 -0.000000     24.000000
  0.157318 -0.133115 -0.012101     24.000000
  0.145216 -0.121014 -0.000000     24.000000
  0.000000  0.048405  0.096811     24.000000
  0.145216 -0.096811 -0.048405     48.000000
  0.133115 -0.084709 -0.036304     48.000000
  0.157318 -0.108912 -0.036304     24.000000
  0.145216 -0.096811 -0.024203     48.000000
  0.133115 -0.084709 -0.012101     48.000000
  0.121014 -0.072608  0.000000     24.000000
  0.157318 -0.108912 -0.012101     24.000000
  0.145216 -0.096811 -0.000000     24.000000
  0.157318 -0.084709 -0.012101     24.000000



--------------------------------------------------------------------------------------------------------




 Dimension of arrays:
   k-points           NKPTS =     84   k-points in BZ     NKDIM =     84   number of bands    NBANDS=     16
   number of dos      NEDOS =    301   number of ions     NIONS =      3
   non local maximal  LDIM  =      6   non local SUM 2l+1 LMDIM =     18
   total plane-waves  NPLWV =  64000
   max r-space proj   IRMAX =      1   max aug-charges    IRDMAX= 503212
   dimension x,y,z NGX =    40 NGY =   40 NGZ =   40
   dimension x,y,z NGXF=    80 NGYF=   80 NGZF=   80
   support grid    NGXF=   160 NGYF=  160 NGZF=  160
   ions per type =               1   1   1
   NGX,Y,Z   is equivalent  to a cutoff of  15.00, 15.00, 15.00 a.u.
   NGXF,Y,Z  is equivalent  to a cutoff of  29.99, 29.99, 29.99 a.u.

 SYSTEM =  unknown system
 POSCAR =  Hf1 Sb1 Pt1

 Startparameter for this run:
   NWRITE =      2    write-flag & timer
   PREC   = acc       normal or accurate (medium, high low for compatibility)
   ISTART =      0    job   : 0-new  1-cont  2-samecut
   ICHARG =      2    charge: 1-file 2-atom 10-const
   ISPIN  =      1    spin polarized calculation?
   LNONCOLLINEAR =      F non collinear calculations
   LSORBIT =      F    spin-orbit coupling
   INIWAV =      1    electr: 0-lowe 1-rand  2-diag
   LASPH  =      F    aspherical Exc in radial PAW
   METAGGA=      F    non-selfconsistent MetaGGA calc.

 Electronic Relaxation 1
   ENCUT  =  700.0 eV  51.45 Ry    7.17 a.u.   9.57  9.57  9.57*2*pi/ulx,y,z
   ENINI  =  700.0     initial cutoff
   ENAUG  =  380.9 eV  augmentation charge cutoff
   NELM   =     60;   NELMIN=  5; NELMDL= -5     # of ELM steps
   EDIFF  = 0.1E-06   stopping-criterion for ELM
   LREAL  =      F    real-space projection
   NLSPLINE    = F    spline interpolate recip. space projectors
   LCOMPAT=      F    compatible to vasp.4.4
   GGA_COMPAT  = T    GGA compatible to vasp.4.4-vasp.4.6
   LMAXPAW     = -100 max onsite density
   LMAXMIX     =    2 max onsite mixed and CHGCAR
   VOSKOWN=      0    Vosko Wilk Nusair interpolation
   ROPT   =    0.00000   0.00000   0.00000
 Ionic relaxation
   EDIFFG = 0.1E-05   stopping-criterion for IOM
   NSW    =      0    number of steps for IOM
   NBLOCK =      1;   KBLOCK =      1    inner block; outer block
   IBRION =     -1    ionic relax: 0-MD 1-quasi-New 2-CG
   NFREE  =      0    steps in history (QN), initial steepest desc. (CG)
   ISIF   =      3    stress and relaxation
   IWAVPR =     10    prediction:  0-non 1-charg 2-wave 3-comb
   ISYM   =      2    0-nonsym 1-usesym 2-fastsym
   LCORR  =      T    Harris-Foulkes like correction to forces

   POTIM  = 0.5000    time-step for ionic-motion
   TEIN   =    0.0    initial temperature
   TEBEG  =    0.0;   TEEND  =   0.0 temperature during run
   SMASS  =  -3.00    Nose mass-parameter (am)
   estimated Nose-frequenzy (Omega)   =  0.10E-29 period in steps = 0.13E+47 mass=  -0.449E-27a.u.
   SCALEE = 1.0000    scale energy and forces
   NPACO  =    256;   APACO  = 16.0  distance and # of slots for P.C.
   PSTRESS=    0.0 pullay stress

  Mass of Ions in am
   POMASS = 178.49121.75195.08
  Ionic Valenz
   ZVAL   =  10.00  5.00 10.00
  Atomic Wigner-Seitz radii
   RWIGS  =  -1.00 -1.00 -1.00
  virtual crystal weights
   VCA    =   1.00  1.00  1.00
   NELECT =      25.0000    total number of electrons
   NUPDOWN=      -1.0000    fix difference up-down

 DOS related values:
   EMIN   =  10.00;   EMAX   =-10.00  energy-range for DOS
   EFERMI =   0.00
   ISMEAR =     0;   SIGMA  =   0.01  broadening in eV -4-tet -1-fermi 0-gaus

 Electronic relaxation 2 (details)
   IALGO  =     38    algorithm
   LDIAG  =      T    sub-space diagonalisation (order eigenvalues)
   LSUBROT=      F    optimize rotation matrix (better conditioning)
   TURBO    =      0    0=normal 1=particle mesh
   IRESTART =      0    0=no restart 2=restart with 2 vectors
   NREBOOT  =      0    no. of reboots
   NMIN     =      0    reboot dimension
   EREF     =   0.00    reference energy to select bands
   IMIX   =      4    mixing-type and parameters
     AMIX     =   0.40;   BMIX     =  1.00
     AMIX_MAG =   1.60;   BMIX_MAG =  1.00
     AMIN     =   0.10
     WC   =   100.;   INIMIX=   1;  MIXPRE=   1;  MAXMIX= -45

 Intra band minimization:
   WEIMIN = 0.0000     energy-eigenvalue tresh-hold
   EBREAK =  0.16E-08  absolut break condition
   DEPER  =   0.30     relativ break condition

   TIME   =   0.40     timestep for ELM

  volume/ion in A,a.u.               =      20.55       138.66
  Fermi-wavevector in a.u.,A,eV,Ry     =   1.211793  2.289956 19.979365  1.468442
  Thomas-Fermi vector in A             =   2.347297

 Write flags
   LWAVE        =      F    write WAVECAR
   LDOWNSAMPLE  =      F    k-point downsampling of WAVECAR
   LCHARG       =      F    write CHGCAR
   LVTOT        =      F    write LOCPOT, total local potential
   LVHAR        =      F    write LOCPOT, Hartree potential only
   LELF         =      F    write electronic localiz. function (ELF)
   LORBIT       =      0    0 simple, 1 ext, 2 COOP (PROOUT), +10 PAW based schemes


 Dipole corrections
   LMONO  =      F    monopole corrections only (constant potential shift)
   LDIPOL =      F    correct potential (dipole corrections)
   IDIPOL =      0    1-x, 2-y, 3-z, 4-all directions
   EPSILON=  1.0000000 bulk dielectric constant

 Exchange correlation treatment:
   GGA     =    PS    GGA type
   LEXCH   =    14    internal setting for exchange type
   VOSKOWN=      0    Vosko Wilk Nusair interpolation
   LHFCALC =     F    Hartree Fock is set to
   LHFONE  =     F    Hartree Fock one center treatment
   AEXX    =    0.0000 exact exchange contribution

 Linear response parameters
   LEPSILON=     F    determine dielectric tensor
   LRPA    =     F    only Hartree local field effects (RPA)
   LNABLA  =     F    use nabla operator in PAW spheres
   LVEL    =     F    velocity operator in full k-point grid
   LINTERFAST=   F  fast interpolation
   KINTER  =     0    interpolate to denser k-point grid
   CSHIFT  =0.1000    complex shift for real part using Kramers Kronig
   OMEGAMAX=  -1.0    maximum frequency
   DEG_THRESHOLD= 0.2000000E-02 threshold for treating states as degnerate
   RTIME   =   -0.100 relaxation time in fs
  (WPLASMAI=    0.000 imaginary part of plasma frequency in eV, 0.658/RTIME)
   DFIELD  = 0.0000000 0.0000000 0.0000000 field for delta impulse in time

 Orbital magnetization related:
   ORBITALMAG=     F  switch on orbital magnetization
   LCHIMAG   =     F  perturbation theory with respect to B field
   DQ        =  0.001000  dq finite difference perturbation B field
   LLRAUG    =     F  two centre corrections for induced B field



--------------------------------------------------------------------------------------------------------


 Static calculation
 charge density and potential will be updated during run
 non-spin polarized calculation
 Variant of blocked Davidson
 Davidson routine will perform the subspace rotation
 perform sub-space diagonalisation
    after iterative eigenvector-optimisation
 modified Broyden-mixing scheme, WC =      100.0
 initial mixing is a Kerker type mixing with AMIX =  0.4000 and BMIX =      1.0000
 Hartree-type preconditioning will be used
 using additional bands            3
 reciprocal scheme for non local part
 use partial core corrections
 calculate Harris-corrections to forces
   (improved forces if not selfconsistent)
 use gradient corrections
 use of overlap-Matrix (Vanderbilt PP)
 Gauss-broadening in eV      SIGMA  =   0.01


--------------------------------------------------------------------------------------------------------


  energy-cutoff  :      700.00
  volume of cell :       61.64
      direct lattice vectors                 reciprocal lattice vectors
     0.000000000  3.135328951  3.135328951    -0.159472900  0.159472900  0.159472900
     3.135328951  0.000000000  3.135328951     0.159472900 -0.159472900  0.159472900
     3.135328951  3.135328951  0.000000000     0.159472900  0.159472900 -0.159472900

  length of vectors
     4.434024724  4.434024724  4.434024724     0.276215165  0.276215165  0.276215165



 k-points in units of 2pi/SCALE and weight: KPOINTS
   0.00000000  0.00000000  0.00000000       0.000
  -0.01210135  0.01210135  0.01210135       0.004
  -0.02420271  0.02420271  0.02420271       0.004
  -0.03630406  0.03630406  0.03630406       0.004
  -0.04840541  0.04840541  0.04840541       0.004
  -0.06050677  0.06050677  0.06050677       0.004
  -0.07260812  0.07260812  0.07260812       0.004
  -0.00000000  0.00000000  0.02420271       0.003
  -0.01210135  0.01210135  0.03630406       0.011
  -0.02420271  0.02420271  0.04840541       0.011
  -0.03630406  0.03630406  0.06050677       0.011
  -0.04840541  0.04840541  0.07260812       0.011
  -0.06050677  0.06050677  0.08470948       0.011
   0.08470948 -0.08470948 -0.06050677       0.011
   0.07260812 -0.07260812 -0.04840541       0.011
   0.06050677 -0.06050677 -0.03630406       0.011
   0.04840541 -0.04840541 -0.02420271       0.011
   0.03630406 -0.03630406 -0.01210135       0.011
   0.02420271 -0.02420271 -0.00000000       0.005
   0.00000000 -0.00000000  0.04840541       0.003
  -0.01210135  0.01210135  0.06050677       0.011
  -0.02420271  0.02420271  0.07260812       0.011
  -0.03630406  0.03630406  0.08470948       0.011
  -0.04840541  0.04840541  0.09681083       0.011
   0.09681083 -0.09681083 -0.04840541       0.011
   0.08470948 -0.08470948 -0.03630406       0.011
   0.07260812 -0.07260812 -0.02420271       0.011
   0.06050677 -0.06050677 -0.01210135       0.011
   0.04840541 -0.04840541  0.00000000       0.005
   0.00000000 -0.00000000  0.07260812       0.003
  -0.01210135  0.01210135  0.08470948       0.011
  -0.02420271  0.02420271  0.09681083       0.011
  -0.03630406  0.03630406  0.10891218       0.011
   0.10891218 -0.10891218 -0.03630406       0.011
   0.09681083 -0.09681083 -0.02420271       0.011
   0.08470948 -0.08470948 -0.01210135       0.011
   0.07260812 -0.07260812 -0.00000000       0.005
   0.00000000 -0.00000000  0.09681083       0.003
  -0.01210135  0.01210135  0.10891218       0.011
  -0.02420271  0.02420271  0.12101354       0.011
   0.12101354 -0.12101354 -0.02420271       0.011
   0.10891218 -0.10891218 -0.01210135       0.011
   0.09681083 -0.09681083  0.00000000       0.005
   0.00000000 -0.00000000  0.12101354       0.003
  -0.01210135  0.01210135  0.13311489       0.011
   0.13311489 -0.13311489 -0.01210135       0.011
   0.12101354 -0.12101354  0.00000000       0.005
  -0.00000000  0.00000000  0.14521624       0.003
   0.14521624 -0.14521624 -0.00000000       0.005
   0.00000000  0.02420271  0.04840541       0.011
  -0.01210135  0.03630406  0.06050677       0.022
  -0.02420271  0.04840541  0.07260812       0.022
  -0.03630406  0.06050677  0.08470948       0.022
   0.10891218 -0.08470948 -0.06050677       0.022
   0.00000000  0.02420271  0.07260812       0.011
  -0.01210135  0.03630406  0.08470948       0.022
  -0.02420271  0.04840541  0.09681083       0.022
   0.12101354 -0.09681083 -0.04840541       0.022
   0.10891218 -0.08470948 -0.03630406       0.022
   0.09681083 -0.07260812 -0.02420271       0.022
   0.08470948 -0.06050677 -0.01210135       0.022
   0.07260812 -0.04840541 -0.00000000       0.011
   0.00000000  0.02420271  0.09681083       0.011
  -0.01210135  0.03630406  0.10891218       0.022
   0.13311489 -0.10891218 -0.03630406       0.022
   0.12101354 -0.09681083 -0.02420271       0.022
   0.10891218 -0.08470948 -0.01210135       0.022
   0.09681083 -0.07260812 -0.00000000       0.011
   0.00000000  0.02420271  0.12101354       0.011
   0.14521624 -0.12101354 -0.02420271       0.022
   0.13311489 -0.10891218 -0.01210135       0.022
   0.12101354 -0.09681083 -0.00000000       0.011
   0.15731760 -0.13311489 -0.01210135       0.011
   0.14521624 -0.12101354 -0.00000000       0.011
   0.00000000  0.04840541  0.09681083       0.011
   0.14521624 -0.09681083 -0.04840541       0.022
   0.13311489 -0.08470948 -0.03630406       0.022
   0.15731760 -0.10891218 -0.03630406       0.011
   0.14521624 -0.09681083 -0.02420271       0.022
   0.13311489 -0.08470948 -0.01210135       0.022
   0.12101354 -0.07260812  0.00000000       0.011
   0.15731760 -0.10891218 -0.01210135       0.011
   0.14521624 -0.09681083 -0.00000000       0.011
   0.15731760 -0.08470948 -0.01210135       0.011

 k-points in reciprocal lattice and weights: KPOINTS
   0.00000000  0.00000000  0.00000000       0.000
   0.07692308 -0.00000000 -0.00000000       0.004
   0.15384615 -0.00000000  0.00000000       0.004
   0.23076923  0.00000000 -0.00000000       0.004
   0.30769231 -0.00000000  0.00000000       0.004
   0.38461538 -0.00000000  0.00000000       0.004
   0.46153846  0.00000000 -0.00000000       0.004
   0.07692308  0.07692308  0.00000000       0.003
   0.15384615  0.07692308 -0.00000000       0.011
   0.23076923  0.07692308 -0.00000000       0.011
   0.30769231  0.07692308 -0.00000000       0.011
   0.38461538  0.07692308 -0.00000000       0.011
   0.46153846  0.07692308 -0.00000000       0.011
  -0.46153846  0.07692308  0.00000000       0.011
  -0.38461538  0.07692308  0.00000000       0.011
  -0.30769231  0.07692308  0.00000000       0.011
  -0.23076923  0.07692308  0.00000000       0.011
  -0.15384615  0.07692308  0.00000000       0.011
  -0.07692308  0.07692308 -0.00000000       0.005
   0.15384615  0.15384615  0.00000000       0.003
   0.23076923  0.15384615 -0.00000000       0.011
   0.30769231  0.15384615 -0.00000000       0.011
   0.38461538  0.15384615 -0.00000000       0.011
   0.46153846  0.15384615  0.00000000       0.011
  -0.46153846  0.15384615 -0.00000000       0.011
  -0.38461538  0.15384615  0.00000000       0.011
  -0.30769231  0.15384615  0.00000000       0.011
  -0.23076923  0.15384615  0.00000000       0.011
  -0.15384615  0.15384615 -0.00000000       0.005
   0.23076923  0.23076923  0.00000000       0.003
   0.30769231  0.23076923  0.00000000       0.011
   0.38461538  0.23076923 -0.00000000       0.011
   0.46153846  0.23076923 -0.00000000       0.011
  -0.46153846  0.23076923  0.00000000       0.011
  -0.38461538  0.23076923 -0.00000000       0.011
  -0.30769231  0.23076923 -0.00000000       0.011
  -0.23076923  0.23076923  0.00000000       0.005
   0.30769231  0.30769231  0.00000000       0.003
   0.38461538  0.30769231  0.00000000       0.011
   0.46153846  0.30769231  0.00000000       0.011
  -0.46153846  0.30769231  0.00000000       0.011
  -0.38461538  0.30769231 -0.00000000       0.011
  -0.30769231  0.30769231 -0.00000000       0.005
   0.38461538  0.38461538  0.00000000       0.003
   0.46153846  0.38461538  0.00000000       0.011
  -0.46153846  0.38461538  0.00000000       0.011
  -0.38461538  0.38461538  0.00000000       0.005
   0.46153846  0.46153846  0.00000000       0.003
  -0.46153846  0.46153846  0.00000000       0.005
   0.23076923  0.15384615  0.07692308       0.011
   0.30769231  0.15384615  0.07692308       0.022
   0.38461538  0.15384615  0.07692308       0.022
   0.46153846  0.15384615  0.07692308       0.022
  -0.46153846  0.15384615  0.07692308       0.022
   0.30769231  0.23076923  0.07692308       0.011
   0.38461538  0.23076923  0.07692308       0.022
   0.46153846  0.23076923  0.07692308       0.022
  -0.46153846  0.23076923  0.07692308       0.022
  -0.38461538  0.23076923  0.07692308       0.022
  -0.30769231  0.23076923  0.07692308       0.022
  -0.23076923  0.23076923  0.07692308       0.022
  -0.15384615  0.23076923  0.07692308       0.011
   0.38461538  0.30769231  0.07692308       0.011
   0.46153846  0.30769231  0.07692308       0.022
  -0.46153846  0.30769231  0.07692308       0.022
  -0.38461538  0.30769231  0.07692308       0.022
  -0.30769231  0.30769231  0.07692308       0.022
  -0.23076923  0.30769231  0.07692308       0.011
   0.46153846  0.38461538  0.07692308       0.011
  -0.46153846  0.38461538  0.07692308       0.022
  -0.38461538  0.38461538  0.07692308       0.022
  -0.30769231  0.38461538  0.07692308       0.011
  -0.46153846  0.46153846  0.07692308       0.011
  -0.38461538  0.46153846  0.07692308       0.011
   0.46153846  0.30769231  0.15384615       0.011
  -0.46153846  0.30769231  0.15384615       0.022
  -0.38461538  0.30769231  0.15384615       0.022
  -0.46153846  0.38461538  0.15384615       0.011
  -0.38461538  0.38461538  0.15384615       0.022
  -0.30769231  0.38461538  0.15384615       0.022
  -0.23076923  0.38461538  0.15384615       0.011
  -0.38461538  0.46153846  0.15384615       0.011
  -0.30769231  0.46153846  0.15384615       0.011
  -0.30769231  0.46153846  0.23076923       0.011

 position of ions in fractional coordinates (direct lattice)
   0.75000000  0.75000000  0.75000000
   0.25000000  0.25000000  0.25000000
   0.00000000  0.00000000  0.00000000

 position of ions in cartesian coordinates  (Angst):
   4.70299343  4.70299343  4.70299343
   1.56766448  1.56766448  1.56766448
   0.00000000  0.00000000  0.00000000



--------------------------------------------------------------------------------------------------------


 k-point  1 :   0.0000 0.0000 0.0000  plane waves:    2637
 k-point  2 :   0.0769-0.0000-0.0000  plane waves:    2649
 k-point  3 :   0.1538-0.0000 0.0000  plane waves:    2622
 k-point  4 :   0.2308 0.0000-0.0000  plane waves:    2611
 k-point  5 :   0.3077-0.0000 0.0000  plane waves:    2593
 k-point  6 :   0.3846-0.0000 0.0000  plane waves:    2590
 k-point  7 :   0.4615 0.0000-0.0000  plane waves:    2572
 k-point  8 :   0.0769 0.0769 0.0000  plane waves:    2633
 k-point  9 :   0.1538 0.0769-0.0000  plane waves:    2623
 k-point 10 :   0.2308 0.0769-0.0000  plane waves:    2605
 k-point 11 :   0.3077 0.0769-0.0000  plane waves:    2592
 k-point 12 :   0.3846 0.0769-0.0000  plane waves:    2586
 k-point 13 :   0.4615 0.0769-0.0000  plane waves:    2576
 k-point 14 :  -0.4615 0.0769 0.0000  plane waves:    2580
 k-point 15 :  -0.3846 0.0769 0.0000  plane waves:    2586
 k-point 16 :  -0.3077 0.0769 0.0000  plane waves:    2594
 k-point 17 :  -0.2308 0.0769 0.0000  plane waves:    2607
 k-point 18 :  -0.1538 0.0769 0.0000  plane waves:    2614
 k-point 19 :  -0.0769 0.0769-0.0000  plane waves:    2631
 k-point 20 :   0.1538 0.1538 0.0000  plane waves:    2609
 k-point 21 :   0.2308 0.1538-0.0000  plane waves:    2606
 k-point 22 :   0.3077 0.1538-0.0000  plane waves:    2590
 k-point 23 :   0.3846 0.1538-0.0000  plane waves:    2579
 k-point 24 :   0.4615 0.1538 0.0000  plane waves:    2583
 k-point 25 :  -0.4615 0.1538-0.0000  plane waves:    2591
 k-point 26 :  -0.3846 0.1538 0.0000  plane waves:    2587
 k-point 27 :  -0.3077 0.1538 0.0000  plane waves:    2592
 k-point 28 :  -0.2308 0.1538 0.0000  plane waves:    2598
 k-point 29 :  -0.1538 0.1538-0.0000  plane waves:    2607
 k-point 30 :   0.2308 0.2308 0.0000  plane waves:    2601
 k-point 31 :   0.3077 0.2308 0.0000  plane waves:    2594
 k-point 32 :   0.3846 0.2308-0.0000  plane waves:    2588
 k-point 33 :   0.4615 0.2308-0.0000  plane waves:    2591
 k-point 34 :  -0.4615 0.2308 0.0000  plane waves:    2591
 k-point 35 :  -0.3846 0.2308-0.0000  plane waves:    2588
 k-point 36 :  -0.3077 0.2308-0.0000  plane waves:    2588
 k-point 37 :  -0.2308 0.2308 0.0000  plane waves:    2588
 k-point 38 :   0.3077 0.3077 0.0000  plane waves:    2598
 k-point 39 :   0.3846 0.3077 0.0000  plane waves:    2586
 k-point 40 :   0.4615 0.3077 0.0000  plane waves:    2583
 k-point 41 :  -0.4615 0.3077 0.0000  plane waves:    2597
 k-point 42 :  -0.3846 0.3077-0.0000  plane waves:    2582
 k-point 43 :  -0.3077 0.3077-0.0000  plane waves:    2586
 k-point 44 :   0.3846 0.3846 0.0000  plane waves:    2586
 k-point 45 :   0.4615 0.3846 0.0000  plane waves:    2586
 k-point 46 :  -0.4615 0.3846 0.0000  plane waves:    2590
 k-point 47 :  -0.3846 0.3846 0.0000  plane waves:    2592
 k-point 48 :   0.4615 0.4615 0.0000  plane waves:    2578
 k-point 49 :  -0.4615 0.4615 0.0000  plane waves:    2566
 k-point 50 :   0.2308 0.1538 0.0769  plane waves:    2606
 k-point 51 :   0.3077 0.1538 0.0769  plane waves:    2600
 k-point 52 :   0.3846 0.1538 0.0769  plane waves:    2590
 k-point 53 :   0.4615 0.1538 0.0769  plane waves:    2585
 k-point 54 :  -0.4615 0.1538 0.0769  plane waves:    2582
 k-point 55 :   0.3077 0.2308 0.0769  plane waves:    2602
 k-point 56 :   0.3846 0.2308 0.0769  plane waves:    2591
 k-point 57 :   0.4615 0.2308 0.0769  plane waves:    2595
 k-point 58 :  -0.4615 0.2308 0.0769  plane waves:    2592
 k-point 59 :  -0.3846 0.2308 0.0769  plane waves:    2595
 k-point 60 :  -0.3077 0.2308 0.0769  plane waves:    2599
 k-point 61 :  -0.2308 0.2308 0.0769  plane waves:    2596
 k-point 62 :  -0.1538 0.2308 0.0769  plane waves:    2604
 k-point 63 :   0.3846 0.3077 0.0769  plane waves:    2591
 k-point 64 :   0.4615 0.3077 0.0769  plane waves:    2593
 k-point 65 :  -0.4615 0.3077 0.0769  plane waves:    2591
 k-point 66 :  -0.3846 0.3077 0.0769  plane waves:    2589
 k-point 67 :  -0.3077 0.3077 0.0769  plane waves:    2591
 k-point 68 :  -0.2308 0.3077 0.0769  plane waves:    2598
 k-point 69 :   0.4615 0.3846 0.0769  plane waves:    2587
 k-point 70 :  -0.4615 0.3846 0.0769  plane waves:    2590
 k-point 71 :  -0.3846 0.3846 0.0769  plane waves:    2592
 k-point 72 :  -0.3077 0.3846 0.0769  plane waves:    2590
 k-point 73 :  -0.4615 0.4615 0.0769  plane waves:    2575
 k-point 74 :  -0.3846 0.4615 0.0769  plane waves:    2586
 k-point 75 :   0.4615 0.3077 0.1538  plane waves:    2589
 k-point 76 :  -0.4615 0.3077 0.1538  plane waves:    2596
 k-point 77 :  -0.3846 0.3077 0.1538  plane waves:    2597
 k-point 78 :  -0.4615 0.3846 0.1538  plane waves:    2588
 k-point 79 :  -0.3846 0.3846 0.1538  plane waves:    2587
 k-point 80 :  -0.3077 0.3846 0.1538  plane waves:    2588
 k-point 81 :  -0.2308 0.3846 0.1538  plane waves:    2599
 k-point 82 :  -0.3846 0.4615 0.1538  plane waves:    2581
 k-point 83 :  -0.3077 0.4615 0.1538  plane waves:    2590
 k-point 84 :  -0.3077 0.4615 0.2308  plane waves:    2588

 maximum and minimum number of plane-waves per node :       670      633

 maximum number of plane-waves:      2649
 maximum index in each direction:
   IXMAX=   10   IYMAX=    9   IZMAX=    9
   IXMIN=  -10   IYMIN=  -10   IZMIN=   -9


 parallel 3D FFT for wavefunctions:
    minimum data exchange during FFTs selected (reduces bandwidth)
 parallel 3D FFT for charge:
    minimum data exchange during FFTs selected (reduces bandwidth)


 total amount of memory used by VASP MPI-rank0    65586. kBytes
=======================================================================

   base      :      30000. kBytes
   nonl-proj :      23981. kBytes
   fftplans  :       5203. kBytes
   grid      :       2732. kBytes
   one-center:         15. kBytes
   wavefun   :       3655. kBytes

     INWAV:  cpu time    0.0003: real time    0.0008
 Broyden mixing: mesh for mixing (old mesh)
   NGX = 19   NGY = 19   NGZ = 19
  (NGX  = 80   NGY  = 80   NGZ  = 80)
  gives a total of   6859 points

 initial charge density was supplied:
 charge density of overlapping atoms calculated
 number of electron      25.0000000 magnetization
 keeping initial charge density in first step


--------------------------------------------------------------------------------------------------------


 Maximum index for augmentation-charges        30747 (set IRDMAX)


--------------------------------------------------------------------------------------------------------


 First call to EWALD:  gamma=   0.449
 Maximum number of real-space cells 3x 3x 3
 Maximum number of reciprocal cells 3x 3x 3

    FEWALD:  cpu time    0.0055: real time    0.0070


--------------------------------------- Iteration      1(   1)  ---------------------------------------


    POTLOK:  cpu time    0.0453: real time    0.1410
    SETDIJ:  cpu time    0.0831: real time    0.0834
     EDDAV:  cpu time    0.9030: real time    0.9159
       DOS:  cpu time    0.0037: real time    0.0044
    --------------------------------------------
      LOOP:  cpu time    1.0354: real time    1.1452

 eigenvalue-minimisations  :  2688
 total energy-change (2. order) : 0.1433714E+03  (-0.1442204E+04)
 number of electron      25.0000000 magnetization
 augmentation part       25.0000000 magnetization

 Free energy of the ion-electron system (eV)
  ---------------------------------------------------
  alpha Z        PSCENC =       110.52062791
  Ewald energy   TEWEN  =     -1585.81751482
  -Hartree energ DENC   =      -316.33592603
  -exchange      EXHF   =         0.00000000
  -V(xc)+E(xc)   XCENC  =       -18.63260717
  PAW double counting   =      1514.36848356    -1421.27055995
  entropy T*S    EENTRO =        -0.00000639
  eigenvalues    EBANDS =       119.43442119
  atomic energy  EATOM  =      1741.10451121
  Solvation  Ediel_sol  =         0.00000000
  ---------------------------------------------------
  free energy    TOTEN  =       143.37142952 eV

  energy without entropy =      143.37143591  energy(sigma->0) =      143.37143271


--------------------------------------------------------------------------------------------------------




--------------------------------------- Iteration      1(   2)  ---------------------------------------


     EDDAV:  cpu time    1.1108: real time    1.1345
       DOS:  cpu time    0.0026: real time    0.0034
    --------------------------------------------
      LOOP:  cpu time    1.1134: real time    1.1422

 eigenvalue-minimisations  :  3432
 total energy-change (2. order) :-0.1633949E+03  (-0.1618384E+03)
 number of electron      25.0000000 magnetization
 augmentation part       25.0000000 magnetization

 Free energy of the ion-electron system (eV)
  ---------------------------------------------------
  alpha Z        PSCENC =       110.52062791
  Ewald energy   TEWEN  =     -1585.81751482
  -Hartree energ DENC   =      -316.33592603
  -exchange      EXHF   =         0.00000000
  -V(xc)+E(xc)   XCENC  =       -18.63260717
  PAW double counting   =      1514.36848356    -1421.27055995
  entropy T*S    EENTRO =        -0.00037745
  eigenvalues    EBANDS =       -43.96007697
  atomic energy  EATOM  =      1741.10451121
  Solvation  Ediel_sol  =         0.00000000
  ---------------------------------------------------
  free energy    TOTEN  =       -20.02343971 eV

  energy without entropy =      -20.02306226  energy(sigma->0) =      -20.02325099


--------------------------------------------------------------------------------------------------------




--------------------------------------- Iteration      1(   3)  ---------------------------------------


     EDDAV:  cpu time    1.1325: real time    1.1584
       DOS:  cpu time    0.0025: real time    0.0028
    --------------------------------------------
      LOOP:  cpu time    1.1350: real time    1.1581

 eigenvalue-minimisations  :  3544
 total energy-change (2. order) :-0.4791450E+01  (-0.4716936E+01)
 number of electron      25.0000000 magnetization
 augmentation part       25.0000000 magnetization

 Free energy of the ion-electron system (eV)
  ---------------------------------------------------
  alpha Z        PSCENC =       110.52062791
  Ewald energy   TEWEN  =     -1585.81751482
  -Hartree energ DENC   =      -316.33592603
  -exchange      EXHF   =         0.00000000
  -V(xc)+E(xc)   XCENC  =       -18.63260717
  PAW double counting   =      1514.36848356    -1421.27055995
  entropy T*S    EENTRO =        -0.00020520
  eigenvalues    EBANDS =       -48.75169930
  atomic energy  EATOM  =      1741.10451121
  Solvation  Ediel_sol  =         0.00000000
  ---------------------------------------------------
  free energy    TOTEN  =       -24.81488979 eV

  energy without entropy =      -24.81468459  energy(sigma->0) =      -24.81478719


--------------------------------------------------------------------------------------------------------




--------------------------------------- Iteration      1(   4)  ---------------------------------------


     EDDAV:  cpu time    1.1547: real time    1.1824
       DOS:  cpu time    0.0026: real time    0.0032
    --------------------------------------------
      LOOP:  cpu time    1.1573: real time    1.1881

 eigenvalue-minimisations  :  3368
 total energy-change (2. order) :-0.6605875E-01  (-0.6592418E-01)
 number of electron      25.0000000 magnetization
 augmentation part       25.0000000 magnetization

 Free energy of the ion-electron system (eV)
  ---------------------------------------------------
  alpha Z        PSCENC =       110.52062791
  Ewald energy   TEWEN  =     -1585.81751482
  -Hartree energ DENC   =      -316.33592603
  -exchange      EXHF   =         0.00000000
  -V(xc)+E(xc)   XCENC  =       -18.63260717
  PAW double counting   =      1514.36848356    -1421.27055995
  entropy T*S    EENTRO =        -0.00018287
  eigenvalues    EBANDS =       -48.81778038
  atomic energy  EATOM  =      1741.10451121
  Solvation  Ediel_sol  =         0.00000000
  ---------------------------------------------------
  free energy    TOTEN  =       -24.88094854 eV

  energy without entropy =      -24.88076567  energy(sigma->0) =      -24.88085711


--------------------------------------------------------------------------------------------------------




--------------------------------------- Iteration      1(   5)  ---------------------------------------


     EDDAV:  cpu time    1.1708: real time    1.2046
       DOS:  cpu time    0.0025: real time    0.0031
    CHARGE:  cpu time    0.2383: real time    0.2388
    MIXING:  cpu time    0.0046: real time    0.0057
    --------------------------------------------
      LOOP:  cpu time    1.4163: real time    1.4517

 eigenvalue-minimisations  :  3648
 total energy-change (2. order) :-0.1634811E-02  (-0.1634308E-02)
 number of electron      25.0000000 magnetization
 augmentation part        4.7725813 magnetization

 Broyden mixing:
  rms(total) = 0.45759E+01    rms(broyden)= 0.45759E+01
  rms(prec ) = 0.47608E+01
  weight for this iteration     100.00

 Free energy of the ion-electron system (eV)
  ---------------------------------------------------
  alpha Z        PSCENC =       110.52062791
  Ewald energy   TEWEN  =     -1585.81751482
  -Hartree energ DENC   =      -316.33592603
  -exchange      EXHF   =         0.00000000
  -V(xc)+E(xc)   XCENC  =       -18.63260717
  PAW double counting   =      1514.36848356    -1421.27055995
  entropy T*S    EENTRO =        -0.00018212
  eigenvalues    EBANDS =       -48.81941595
  atomic energy  EATOM  =      1741.10451121
  Solvation  Ediel_sol  =         0.00000000
  ---------------------------------------------------
  free energy    TOTEN  =       -24.88258335 eV

  energy without entropy =      -24.88240123  energy(sigma->0) =      -24.88249229


--------------------------------------------------------------------------------------------------------




--------------------------------------- Iteration      1(   6)  ---------------------------------------


    POTLOK:  cpu time    0.0660: real time    0.0900
    SETDIJ:  cpu time    0.0847: real time    0.0858
     EDDAV:  cpu time    1.0979: real time    1.0998
       DOS:  cpu time    0.0026: real time    0.0029
    CHARGE:  cpu time    0.1997: real time    0.2006
    MIXING:  cpu time    0.0051: real time    0.0057
    --------------------------------------------
      LOOP:  cpu time    1.4560: real time    1.4840

 eigenvalue-minimisations  :  3504
 total energy-change (2. order) : 0.7019584E+00  (-0.1543348E+00)
 number of electron      25.0000000 magnetization
 augmentation part        4.9586013 magnetization

 Broyden mixing:
  rms(total) = 0.27315E+01    rms(broyden)= 0.27315E+01
  rms(prec ) = 0.27842E+01
  weight for this iteration     100.00

 eigenvalues of (default mixing * dielectric matrix)
  average eigenvalue GAMMA=   2.4355
  2.4355

 Free energy of the ion-electron system (eV)
  ---------------------------------------------------
  alpha Z        PSCENC =       110.52062791
  Ewald energy   TEWEN  =     -1585.81751482
  -Hartree energ DENC   =      -302.16902089
  -exchange      EXHF   =         0.00000000
  -V(xc)+E(xc)   XCENC  =       -19.10763656
  PAW double counting   =      1998.98785297    -1908.51222651
  entropy T*S    EENTRO =        -0.00031583
  eigenvalues    EBANDS =       -59.18690244
  atomic energy  EATOM  =      1741.10451121
  Solvation  Ediel_sol  =         0.00000000
  ---------------------------------------------------
  free energy    TOTEN  =       -24.18062496 eV

  energy without entropy =      -24.18030913  energy(sigma->0) =      -24.18046705


--------------------------------------------------------------------------------------------------------




--------------------------------------- Iteration      1(   7)  ---------------------------------------


    POTLOK:  cpu time    0.0417: real time    0.0902
    SETDIJ:  cpu time    0.0862: real time    0.0867
     EDDAV:  cpu time    1.1447: real time    1.1451
       DOS:  cpu time    0.0026: real time    0.0030
    CHARGE:  cpu time    0.1789: real time    0.1791
    MIXING:  cpu time    0.0040: real time    0.0042
    --------------------------------------------
      LOOP:  cpu time    1.4581: real time    1.5080

 eigenvalue-minimisations  :  3728
 total energy-change (2. order) : 0.1323774E+00  (-0.9308011E-01)
 number of electron      25.0000000 magnetization
 augmentation part        4.9793792 magnetization

 Broyden mixing:
  rms(total) = 0.42615E+00    rms(broyden)= 0.42615E+00
  rms(prec ) = 0.55433E+00
  weight for this iteration     100.00

 eigenvalues of (default mixing * dielectric matrix)
  average eigenvalue GAMMA=   1.8683
  1.1036  2.6330

 Free energy of the ion-electron system (eV)
  ---------------------------------------------------
  alpha Z        PSCENC =       110.52062791
  Ewald energy   TEWEN  =     -1585.81751482
  -Hartree energ DENC   =      -294.63879490
  -exchange      EXHF   =         0.00000000
  -V(xc)+E(xc)   XCENC  =       -19.28723151
  PAW double counting   =      2731.92611052    -2644.49828830
  entropy T*S    EENTRO =        -0.00028343
  eigenvalues    EBANDS =       -63.35738429
  atomic energy  EATOM  =      1741.10451121
  Solvation  Ediel_sol  =         0.00000000
  ---------------------------------------------------
  free energy    TOTEN  =       -24.04824761 eV

  energy without entropy =      -24.04796418  energy(sigma->0) =      -24.04810590


--------------------------------------------------------------------------------------------------------




--------------------------------------- Iteration      1(   8)  ---------------------------------------


    POTLOK:  cpu time    0.0792: real time    0.0992
    SETDIJ:  cpu time    0.0794: real time    0.0795
     EDDAV:  cpu time    1.1016: real time    1.1018
       DOS:  cpu time    0.0025: real time    0.0028
    CHARGE:  cpu time    0.2149: real time    0.2150
    MIXING:  cpu time    0.0041: real time    0.0042
    --------------------------------------------
      LOOP:  cpu time    1.4816: real time    1.5022

 eigenvalue-minimisations  :  3568
 total energy-change (2. order) : 0.2906534E-01  (-0.3905915E-01)
 number of electron      25.0000000 magnetization
 augmentation part        5.0341713 magnetization

 Broyden mixing:
  rms(total) = 0.98710E-01    rms(broyden)= 0.98709E-01
  rms(prec ) = 0.19462E+00
  weight for this iteration     100.00

 eigenvalues of (default mixing * dielectric matrix)
  average eigenvalue GAMMA=   1.5307
  2.5439  1.4335  0.6146

 Free energy of the ion-electron system (eV)
  ---------------------------------------------------
  alpha Z        PSCENC =       110.52062791
  Ewald energy   TEWEN  =     -1585.81751482
  -Hartree energ DENC   =      -294.36029036
  -exchange      EXHF   =         0.00000000
  -V(xc)+E(xc)   XCENC  =       -19.26458641
  PAW double counting   =      2808.70048553    -2721.45876650
  entropy T*S    EENTRO =        -0.00027835
  eigenvalues    EBANDS =       -63.44337049
  atomic energy  EATOM  =      1741.10451121
  Solvation  Ediel_sol  =         0.00000000
  ---------------------------------------------------
  free energy    TOTEN  =       -24.01918227 eV

  energy without entropy =      -24.01890392  energy(sigma->0) =      -24.01904310


--------------------------------------------------------------------------------------------------------




--------------------------------------- Iteration      1(   9)  ---------------------------------------


    POTLOK:  cpu time    0.0732: real time    0.0961
    SETDIJ:  cpu time    0.0844: real time    0.0846
     EDDAV:  cpu time    0.9651: real time    0.9654
       DOS:  cpu time    0.0026: real time    0.0032
    CHARGE:  cpu time    0.1804: real time    0.1805
    MIXING:  cpu time    0.0044: real time    0.0045
    --------------------------------------------
      LOOP:  cpu time    1.3102: real time    1.3338

 eigenvalue-minimisations  :  2912
 total energy-change (2. order) : 0.7856220E-02  (-0.4899594E-02)
 number of electron      25.0000000 magnetization
 augmentation part        5.0043817 magnetization

 Broyden mixing:
  rms(total) = 0.46158E-01    rms(broyden)= 0.46158E-01
  rms(prec ) = 0.61309E-01
  weight for this iteration     100.00

 eigenvalues of (default mixing * dielectric matrix)
  average eigenvalue GAMMA=   1.4320
  2.3797  1.3562  1.3562  0.6358

 Free energy of the ion-electron system (eV)
  ---------------------------------------------------
  alpha Z        PSCENC =       110.52062791
  Ewald energy   TEWEN  =     -1585.81751482
  -Hartree energ DENC   =      -295.86201334
  -exchange      EXHF   =         0.00000000
  -V(xc)+E(xc)   XCENC  =       -19.20937234
  PAW double counting   =      2798.33566007    -2711.00826378
  entropy T*S    EENTRO =        -0.00027962
  eigenvalues    EBANDS =       -62.07468135
  atomic energy  EATOM  =      1741.10451121
  Solvation  Ediel_sol  =         0.00000000
  ---------------------------------------------------
  free energy    TOTEN  =       -24.01132605 eV

  energy without entropy =      -24.01104643  energy(sigma->0) =      -24.01118624


--------------------------------------------------------------------------------------------------------




--------------------------------------- Iteration      1(  10)  ---------------------------------------


    POTLOK:  cpu time    0.0729: real time    0.0995
    SETDIJ:  cpu time    0.0783: real time    0.0784
     EDDAV:  cpu time    1.1615: real time    1.1617
       DOS:  cpu time    0.0031: real time    0.0033
    CHARGE:  cpu time    0.1837: real time    0.1838
    MIXING:  cpu time    0.0050: real time    0.0051
    --------------------------------------------
      LOOP:  cpu time    1.5045: real time    1.5329

 eigenvalue-minimisations  :  3704
 total energy-change (2. order) : 0.2724090E-03  (-0.6100657E-03)
 number of electron      25.0000000 magnetization
 augmentation part        4.9987127 magnetization

 Broyden mixing:
  rms(total) = 0.28415E-01    rms(broyden)= 0.28415E-01
  rms(prec ) = 0.31855E-01
  weight for this iteration     100.00

 eigenvalues of (default mixing * dielectric matrix)
  average eigenvalue GAMMA=   1.3784
  2.4388  1.7993  1.2405  0.6924  0.7209

 Free energy of the ion-electron system (eV)
  ---------------------------------------------------
  alpha Z        PSCENC =       110.52062791
  Ewald energy   TEWEN  =     -1585.81751482
  -Hartree energ DENC   =      -295.90392091
  -exchange      EXHF   =         0.00000000
  -V(xc)+E(xc)   XCENC  =       -19.20912928
  PAW double counting   =      2795.23376909    -2707.81672457
  entropy T*S    EENTRO =        -0.00026488
  eigenvalues    EBANDS =       -62.12240739
  atomic energy  EATOM  =      1741.10451121
  Solvation  Ediel_sol  =         0.00000000
  ---------------------------------------------------
  free energy    TOTEN  =       -24.01105364 eV

  energy without entropy =      -24.01078876  energy(sigma->0) =      -24.01092120


--------------------------------------------------------------------------------------------------------




--------------------------------------- Iteration      1(  11)  ---------------------------------------


    POTLOK:  cpu time    0.0622: real time    0.0831
    SETDIJ:  cpu time    0.0845: real time    0.0846
     EDDAV:  cpu time    0.9787: real time    0.9789
       DOS:  cpu time    0.0024: real time    0.0029
    CHARGE:  cpu time    0.1799: real time    0.1806
    MIXING:  cpu time    0.0045: real time    0.0046
    --------------------------------------------
      LOOP:  cpu time    1.3122: real time    1.3336

 eigenvalue-minimisations  :  2992
 total energy-change (2. order) : 0.3635692E-04  (-0.2036689E-04)
 number of electron      25.0000000 magnetization
 augmentation part        5.0003845 magnetization

 Broyden mixing:
  rms(total) = 0.11788E-01    rms(broyden)= 0.11788E-01
  rms(prec ) = 0.13443E-01
  weight for this iteration     100.00

 eigenvalues of (default mixing * dielectric matrix)
  average eigenvalue GAMMA=   1.4653
  2.5765  2.2893  0.6595  1.1426  1.1426  0.9813

 Free energy of the ion-electron system (eV)
  ---------------------------------------------------
  alpha Z        PSCENC =       110.52062791
  Ewald energy   TEWEN  =     -1585.81751482
  -Hartree energ DENC   =      -295.90209185
  -exchange      EXHF   =         0.00000000
  -V(xc)+E(xc)   XCENC  =       -19.20696245
  PAW double counting   =      2800.13539881    -2712.70715226
  entropy T*S    EENTRO =        -0.00026423
  eigenvalues    EBANDS =       -62.13756961
  atomic energy  EATOM  =      1741.10451121
  Solvation  Ediel_sol  =         0.00000000
  ---------------------------------------------------
  free energy    TOTEN  =       -24.01101729 eV

  energy without entropy =      -24.01075306  energy(sigma->0) =      -24.01088517


--------------------------------------------------------------------------------------------------------




--------------------------------------- Iteration      1(  12)  ---------------------------------------


    POTLOK:  cpu time    0.0844: real time    0.1082
    SETDIJ:  cpu time    0.0783: real time    0.0784
     EDDAV:  cpu time    1.1263: real time    1.1271
       DOS:  cpu time    0.0026: real time    0.0053
    CHARGE:  cpu time    0.1846: real time    0.1848
    MIXING:  cpu time    0.0046: real time    0.0049
    --------------------------------------------
      LOOP:  cpu time    1.4808: real time    1.5160

 eigenvalue-minimisations  :  3696
 total energy-change (2. order) : 0.7376849E-05  (-0.1246765E-04)
 number of electron      25.0000000 magnetization
 augmentation part        5.0006438 magnetization

 Broyden mixing:
  rms(total) = 0.29708E-02    rms(broyden)= 0.29708E-02
  rms(prec ) = 0.31821E-02
  weight for this iteration     100.00

 eigenvalues of (default mixing * dielectric matrix)
  average eigenvalue GAMMA=   1.4720
  2.4092  2.4092  1.8197  0.6601  1.0185  1.0185  0.9692

 Free energy of the ion-electron system (eV)
  ---------------------------------------------------
  alpha Z        PSCENC =       110.52062791
  Ewald energy   TEWEN  =     -1585.81751482
  -Hartree energ DENC   =      -295.95541526
  -exchange      EXHF   =         0.00000000
  -V(xc)+E(xc)   XCENC  =       -19.20370089
  PAW double counting   =      2800.97411984    -2713.53358378
  entropy T*S    EENTRO =        -0.00026756
  eigenvalues    EBANDS =       -62.09978656
  atomic energy  EATOM  =      1741.10451121
  Solvation  Ediel_sol  =         0.00000000
  ---------------------------------------------------
  free energy    TOTEN  =       -24.01100991 eV

  energy without entropy =      -24.01074235  energy(sigma->0) =      -24.01087613


--------------------------------------------------------------------------------------------------------




--------------------------------------- Iteration      1(  13)  ---------------------------------------


    POTLOK:  cpu time    0.0561: real time    0.1032
    SETDIJ:  cpu time    0.0849: real time    0.0850
     EDDAV:  cpu time    0.9224: real time    0.9226
       DOS:  cpu time    0.0026: real time    0.0044
    CHARGE:  cpu time    0.1803: real time    0.1804
    MIXING:  cpu time    0.0046: real time    0.0048
    --------------------------------------------
      LOOP:  cpu time    1.2510: real time    1.2946

 eigenvalue-minimisations  :  2832
 total energy-change (2. order) : 0.1584744E-05  (-0.3483205E-06)
 number of electron      25.0000000 magnetization
 augmentation part        5.0008072 magnetization

 Broyden mixing:
  rms(total) = 0.60444E-03    rms(broyden)= 0.60443E-03
  rms(prec ) = 0.86137E-03
  weight for this iteration     100.00

 eigenvalues of (default mixing * dielectric matrix)
  average eigenvalue GAMMA=   1.5289
  2.6717  2.5182  2.0822  0.6613  1.2755  0.9167  1.0528  1.0528

 Free energy of the ion-electron system (eV)
  ---------------------------------------------------
  alpha Z        PSCENC =       110.52062791
  Ewald energy   TEWEN  =     -1585.81751482
  -Hartree energ DENC   =      -295.94160908
  -exchange      EXHF   =         0.00000000
  -V(xc)+E(xc)   XCENC  =       -19.20435543
  PAW double counting   =      2800.24127224    -2712.79911140
  entropy T*S    EENTRO =        -0.00026698
  eigenvalues    EBANDS =       -62.11456198
  atomic energy  EATOM  =      1741.10451121
  Solvation  Ediel_sol  =         0.00000000
  ---------------------------------------------------
  free energy    TOTEN  =       -24.01100832 eV

  energy without entropy =      -24.01074134  energy(sigma->0) =      -24.01087483


--------------------------------------------------------------------------------------------------------




--------------------------------------- Iteration      1(  14)  ---------------------------------------


    POTLOK:  cpu time    0.1008: real time    0.1264
    SETDIJ:  cpu time    0.0790: real time    0.0791
     EDDAV:  cpu time    1.1626: real time    1.1628
       DOS:  cpu time    0.0025: real time    0.0030
    CHARGE:  cpu time    0.1851: real time    0.1852
    MIXING:  cpu time    0.0049: real time    0.0050
    --------------------------------------------
      LOOP:  cpu time    1.5349: real time    1.5611

 eigenvalue-minimisations  :  3800
 total energy-change (2. order) : 0.1855378E-06  (-0.7680127E-07)
 number of electron      25.0000000 magnetization
 augmentation part        5.0007934 magnetization

 Broyden mixing:
  rms(total) = 0.16880E-03    rms(broyden)= 0.16877E-03
  rms(prec ) = 0.18356E-03
  weight for this iteration     100.00

 eigenvalues of (default mixing * dielectric matrix)
  average eigenvalue GAMMA=   1.4575
  2.6621  2.4287  2.1057  1.3496  1.0673  1.0673  0.6612  0.9226  0.8527

 Free energy of the ion-electron system (eV)
  ---------------------------------------------------
  alpha Z        PSCENC =       110.52062791
  Ewald energy   TEWEN  =     -1585.81751482
  -Hartree energ DENC   =      -295.94027773
  -exchange      EXHF   =         0.00000000
  -V(xc)+E(xc)   XCENC  =       -19.20433810
  PAW double counting   =      2800.33472299    -2712.89131545
  entropy T*S    EENTRO =        -0.00026674
  eigenvalues    EBANDS =       -62.11715740
  atomic energy  EATOM  =      1741.10451121
  Solvation  Ediel_sol  =         0.00000000
  ---------------------------------------------------
  free energy    TOTEN  =       -24.01100814 eV

  energy without entropy =      -24.01074140  energy(sigma->0) =      -24.01087477


--------------------------------------------------------------------------------------------------------




--------------------------------------- Iteration      1(  15)  ---------------------------------------


    POTLOK:  cpu time    0.0567: real time    0.0819
    SETDIJ:  cpu time    0.0857: real time    0.0859
     EDDAV:  cpu time    0.7111: real time    0.7118
       DOS:  cpu time    0.0025: real time    0.0030
    --------------------------------------------
      LOOP:  cpu time    0.8561: real time    0.8801

 eigenvalue-minimisations  :  1784
 total energy-change (2. order) :-0.1021453E-07  (-0.1884711E-08)
 number of electron      25.0000000 magnetization
 augmentation part        5.0007934 magnetization

 Free energy of the ion-electron system (eV)
  ---------------------------------------------------
  alpha Z        PSCENC =       110.52062791
  Ewald energy   TEWEN  =     -1585.81751482
  -Hartree energ DENC   =      -295.93969826
  -exchange      EXHF   =         0.00000000
  -V(xc)+E(xc)   XCENC  =       -19.20435716
  PAW double counting   =      2800.40285895    -2712.95965768
  entropy T*S    EENTRO =        -0.00026672
  eigenvalues    EBANDS =       -62.11751159
  atomic energy  EATOM  =      1741.10451121
  Solvation  Ediel_sol  =         0.00000000
  ---------------------------------------------------
  free energy    TOTEN  =       -24.01100815 eV

  energy without entropy =      -24.01074143  energy(sigma->0) =      -24.01087479


--------------------------------------------------------------------------------------------------------




 average (electrostatic) potential at core
  the test charge radii are     1.1707  1.1712  1.2059
  (the norm of the test charge is              1.0000)
       1 -34.0961       2 -84.1692       3 -65.9972



 E-fermi :   9.5355     XC(G=0): -11.5484     alpha+bet :-14.2010


 k-point     1 :       0.0000    0.0000    0.0000
  band No.  band energies     occupation
      1     -22.6620      2.00000
      2     -22.6620      2.00000
      3     -22.6620      2.00000
      4      -3.6477      2.00000
      5       3.1775      2.00000
      6       3.1775      2.00000
      7       3.1775      2.00000
      8       3.9923      2.00000
      9       3.9923      2.00000
     10       7.7463      2.00000
     11       7.7463      2.00000
     12       7.7463      2.00000
     13       8.7840      2.00000
     14      10.4439      0.00000
     15      10.4439      0.00000
     16      10.4439      0.00000

 k-point     2 :       0.0769   -0.0000   -0.0000
  band No.  band energies     occupation
      1     -22.6633      2.00000
      2     -22.6619      2.00000
      3     -22.6619      2.00000
      4      -3.5788      2.00000
      5       3.1003      2.00000
      6       3.1442      2.00000
      7       3.1442      2.00000
      8       4.0387      2.00000
      9       4.0387      2.00000
     10       7.2211      2.00000
     11       7.6806      2.00000
     12       7.6806      2.00000
     13       8.9582      2.00000
     14      10.2745      0.00000
     15      10.2745      0.00000
     16      10.8646      0.00000

 k-point     3 :       0.1538   -0.0000    0.0000
  band No.  band energies     occupation
      1     -22.6669      2.00000
      2     -22.6617      2.00000
      3     -22.6617      2.00000
      4      -3.3792      2.00000
      5       2.8849      2.00000
      6       3.0747      2.00000
      7       3.0747      2.00000
      8       4.1397      2.00000
      9       4.1397      2.00000
     10       6.3327      2.00000
     11       7.5166      2.00000
     12       7.5166      2.00000
     13       9.1441      2.00000
     14      10.1668      0.00000
     15      10.1668      0.00000
     16      11.6628      0.00000

 k-point     4 :       0.2308    0.0000   -0.0000
  band No.  band energies     occupation
      1     -22.6719      2.00000
      2     -22.6614      2.00000
      3     -22.6614      2.00000
      4      -3.0712      2.00000
      5       2.5655      2.00000
      6       3.0131      2.00000
      7       3.0131      2.00000
      8       4.2311      2.00000
      9       4.2311      2.00000
     10       5.5082      2.00000
     11       7.3272      2.00000
     12       7.3272      2.00000
     13       9.2951      2.00000
     14      10.1930      0.00000
     15      10.1930      0.00000
     16      12.3398      0.00000

 k-point     5 :       0.3077   -0.0000    0.0000
  band No.  band energies     occupation
      1     -22.6772      2.00000
      2     -22.6610      2.00000
      3     -22.6610      2.00000
      4      -2.6981      2.00000
      5       2.1814      2.00000
      6       2.9797      2.00000
      7       2.9797      2.00000
      8       4.2736      2.00000
      9       4.2736      2.00000
     10       4.8724      2.00000
     11       7.1758      2.00000
     12       7.1758      2.00000
     13       9.4343      2.00000
     14      10.3218      0.00000
     15      10.3218      0.00000
     16      11.8716      0.00000

 k-point     6 :       0.3846   -0.0000    0.0000
  band No.  band energies     occupation
      1     -22.6816      2.00000
      2     -22.6608      2.00000
      3     -22.6608      2.00000
      4      -2.3338      2.00000
      5       1.8009      2.00000
      6       2.9728      2.00000
      7       2.9728      2.00000
      8       4.2680      2.00000
      9       4.2680      2.00000
     10       4.4642      2.00000
     11       7.0871      2.00000
     12       7.0871      2.00000
     13       9.5759      0.00000
     14      10.5025      0.00000
     15      10.5025      0.00000
     16      11.0960      0.00000

 k-point     7 :       0.4615    0.0000   -0.0000
  band No.  band energies     occupation
      1     -22.6840      2.00000
      2     -22.6606      2.00000
      3     -22.6606      2.00000
      4      -2.0937      2.00000
      5       1.5472      2.00000
      6       2.9771      2.00000
      7       2.9771      2.00000
      8       4.2481      2.00000
      9       4.2481      2.00000
     10       4.2715      2.00000
     11       7.0510      2.00000
     12       7.0510      2.00000
     13       9.7103      0.00000
     14      10.6042      0.00000
     15      10.6461      0.00000
     16      10.6461      0.00000

 k-point     8 :       0.0769    0.0769    0.0000
  band No.  band energies     occupation
      1     -22.6632      2.00000
      2     -22.6621      2.00000
      3     -22.6621      2.00000
      4      -3.5562      2.00000
      5       2.9463      2.00000
      6       3.2096      2.00000
      7       3.2096      2.00000
      8       4.0272      2.00000
      9       4.0607      2.00000
     10       7.2756      2.00000
     11       7.5463      2.00000
     12       7.5463      2.00000
     13       9.0042      2.00000
     14      10.1605      0.00000
     15      10.6799      0.00000
     16      10.7378      0.00000

 k-point     9 :       0.1538    0.0769   -0.0000
  band No.  band energies     occupation
      1     -22.6659      2.00000
      2     -22.6621      2.00000
      3     -22.6619      2.00000
      4      -3.4014      2.00000
      5       2.7293      2.00000
      6       3.1833      2.00000
      7       3.2091      2.00000
      8       4.0984      2.00000
      9       4.1273      2.00000
     10       6.5971      2.00000
     11       7.3526      2.00000
     12       7.4327      2.00000
     13       9.2066      2.00000
     14      10.0080      0.00000
     15      10.4375      0.00000
     16      11.2575      0.00000

 k-point    10 :       0.2308    0.0769   -0.0000
  band No.  band energies     occupation
      1     -22.6704      2.00000
      2     -22.6620      2.00000
      3     -22.6616      2.00000
      4      -3.1317      2.00000
      5       2.4858      2.00000
      6       3.0813      2.00000
      7       3.1714      2.00000
      8       4.1948      2.00000
      9       4.2119      2.00000
     10       5.7822      2.00000
     11       7.1709      2.00000
     12       7.2636      2.00000
     13       9.4584      2.00000
     14       9.9898      0.00000
     15      10.3110      0.00000
     16      11.8552      0.00000

 k-point    11 :       0.3077    0.0769   -0.0000
  band No.  band energies     occupation
      1     -22.6755      2.00000
      2     -22.6617      2.00000
      3     -22.6614      2.00000
      4      -2.7831      2.00000
      5       2.2023      2.00000
      6       2.9810      2.00000
      7       3.1293      2.00000
      8       4.2551      2.00000
      9       4.2723      2.00000
[...]
  212              fftbas_plan_mpi                       0.063637                     12   6
  213                dfftw_execute                         0.025527                   36   7
  214                map_backward                          0.004072                   12   7
  215                  map_gather                            0.000793                  6   8
  216                  m_alltoallv_z                         0.001859                  6   8
  217                  map_scatter                           0.001124                  6   8
  218                map_forward                           0.030719                   12   7
  219                  map_gather                            0.016824                  6   8
  220                  m_alltoallv_z                         0.006843                  6   8
  221                  map_scatter                           0.006739                  6   8
  222            M_sumb_d                              0.006968                        6   5
  223          M_sumb_d                              0.000027                          1   4
  224        setdij_                               1.294422                           20   3
  225          fft3d_mpi                             0.216894                         40   4
  226            fftbas_plan_mpi                       0.199927                       40   5
  227              dfftw_execute                         0.086554                    120   6
  228              map_backward                          0.012817                     40   6
  229                map_gather                            0.002841                   20   7
  230                m_alltoallv_z                         0.005431                   20   7
  231                map_scatter                           0.003641                   20   7
  232              map_forward                           0.090535                     40   6
  233                map_gather                            0.050218                   20   7
  234                m_alltoallv_z                         0.017987                   20   7
  235                map_scatter                           0.021260                   20   7
  236          M_sumb_d                              0.017136                         20   4
  237        set_dd_magatom                        0.000003                            1   3
  238        set_dd_paw                            0.002133                            1   3
  239          set_rsgf_all                          0.000004                          1   4
  240          M_sumb_d                              0.001992                          8   4
  241        strkin                                0.001442                            1   3
  242          M_sumb_d                              0.001015                          1   4
  243        strelo                                0.002592                            1   3
  244          M_sumb_d                              0.000431                          2   4
  245        strenl                                0.658812                            1   3
  246          spher                                 0.524335                         19   4
  247          phase                                 0.010815                        189   4
  248          proj1                                 0.108687                        756   4
  249            crexp_mul_wave                        0.016935                     2268   5
  250            M_sumb_d                              0.029475                      756   5
  251          M_sumb_d                              0.003023                          1   4
  252        M_sumb_d                              0.000278                            6   3
  253        fft3d_mpi                             0.014793                           11   3
  254          fftbas_plan_mpi                       0.013782                         11   4
  255            dfftw_execute                         0.004838                       33   5
  256            map_forward                           0.002825                       10   5
  257              map_gather                            0.000605                      5   6
  258              m_alltoallv_z                         0.001340                      5   6
  259              map_scatter                           0.000643                      5   6
  260            map_backward                          0.003647                       12   5
  261              map_gather                            0.000771                      6   6
  262              m_alltoallv_z                         0.001484                      6   6
  263              map_scatter                           0.001106                      6   6
  264        ggaall_grid                           0.001580                            1   3
  265        forhar                                0.006279                            2   3
  266          M_sumb_d                              0.000416                          2   4
  267        strehar                               0.002643                            1   3
  268          M_sumb_d                              0.000112                          1   4
  269        chggra                                0.005753                            1   3
  270          fft3d_mpi                             0.004036                          3   4
  271            fftbas_plan_mpi                       0.003761                        3   5
  272              dfftw_execute                         0.001338                      9   6
  273              map_backward                          0.000616                      2   6
  274                map_gather                            0.000138                    1   7
  275                m_alltoallv_z                         0.000248                    1   7
  276                map_scatter                           0.000183                    1   7
  277              map_forward                           0.001080                      4   6
  278                map_gather                            0.000237                    2   7
  279                m_alltoallv_z                         0.000513                    2   7
  280                map_scatter                           0.000243                    2   7
  281          M_sumb_d                              0.000115                          3   4
  282        brmix                                 0.010878                            1   3
  283          M_sumb_d                              0.000264                          6   4
  284          brpre                                 0.000044                          1   4
  285          setg0                                 0.001448                          1   4
  286          broyd                                 0.001941                          1   4
  287            M_sumb_d                              0.000567                       17   5
  288            brsav                                 0.000099                       16   5
  289            brget                                 0.000270                       59   5
  290          M_bcast_z                             0.006231                          1   4
  291          M_bcast_d                             0.000060                          1   4
  292        M_bcast_d                             0.000199                            2   3
  293      potlok                                0.026896                              1   2
  294        fft3d_mpi                             0.018740                           13   3
  295          fftbas_plan_mpi                       0.017479                         13   4
  296            dfftw_execute                         0.005837                       39   5
  297            map_forward                           0.003744                       14   5
  298              map_gather                            0.000745                      8   6
  299              m_alltoallv_z                         0.001823                      8   6
  300              map_scatter                           0.000839                      8   6
  301            map_backward                          0.004704                       12   5
  302              map_gather                            0.000950                      6   6
  303              m_alltoallv_z                         0.001887                      6   6
  304              map_scatter                           0.001551                      6   6
  305        ggaall_grid                           0.001568                            1   3
  306        M_sumb_d                              0.000297                            6   3
  307        M_bcast_d                             0.000099                            1   3
  308      potlok_metagga                        0.000004                              1   2
  309      set_dd_magatom                        0.000004                              1   2
  310      set_dd_paw                            0.000401                              1   2
  311        set_rsgf_all                          0.000004                            1   3
  312        M_sumb_d                              0.000245                            8   3
  313      densta                                0.002096                              1   2
  314        M_sumb_d                              0.000870                           41   3
  315      lprj_proall                           0.000008                              1   2

 Flat profile
 ============

             routine name                   CPU           calls
 ---------------------------------------------------------------
 total_time                             14.448779           1
 dfftw_execute                           2.931623       29361
 eddav                                   2.908620          15
 setdij_                                 2.203444          39
 fftbas_plan_mpi                         2.002933        9789
 elmin                                   1.564090           1
 M_sumb_d                                1.490854       27666
 set_charge                              1.199166          11
 m_alltoallv_z                           1.126376        9810
 M_alltoall_d                            0.653280       32088
 pdssyex_zheevx                          0.637579         315
 spher                                   0.580403          20
 orth1                                   0.461041        6537
 vhamil                                  0.441616        4344
 map_gather                              0.414342        9810
 proj1                                   0.393517        3924
 M_bcast_z                               0.378666        3881
 fftwav_mpi                              0.374001        5172
 map_forward                             0.369047       10606
 map_scatter                             0.366951        9810
 gemm                                    0.335690       13032
 vnlac0                                  0.283395        4344
 redis_pw                                0.266557       12444
 crpa_reader                             0.254461           1
 hamiltmu                                0.238319        2172
 redis_proj                              0.235852       15549
 fft3d_mpi                               0.214965        9787
 w1_copy                                 0.171102       13032
 map_backward                            0.157805        8968
 fftext_mpi                              0.135975        4344
 work_mul_crexp                          0.133673       13032
 eccp                                    0.114198        1260
 crexp_mul_wave                          0.098588       11772
 kinhamil                                0.083925        4344
 overl                                   0.081786        7449
 potlok                                  0.077574          12
 M_bcast_d                               0.070911        2202
 overl1                                  0.054517        4344
 pw_charge                               0.050226         828
 force_and_stress                        0.049915           1
 lincom                                  0.044878         336
 setup_precond                           0.041310        1260
 apply_precond                           0.040419        3084
 w1_projall                              0.032791        1542
 phase                                   0.031431         547
 soft_charge                             0.021919          11
 ggaall_grid                             0.020399          13
 truncate_high_frequency_w1              0.019276        5604
 fornl                                   0.019264           1
 densta                                  0.018693          16
 setg0                                   0.013134          12
 strenl                                  0.011951           1
 brmix                                   0.010757          11
 broyd                                   0.006943          11
 forhar                                  0.005863           2
 forloc                                  0.003102           1
 strehar                                 0.002531           1
 set_dd_paw                              0.002524          13
 depsum                                  0.002471          11
 strelo                                  0.002161           1
 orthch                                  0.001925           1
 brgrid                                  0.001701           1
 brget                                   0.001649         368
 chggra                                  0.001602           1
 proj                                    0.001030          21
 choleski                                0.000982          21
 brpre                                   0.000771          11
 brsav                                   0.000760         112
 strkin                                  0.000427           1
 fordep                                  0.000132           1
 vectorpot                               0.000064          12
 set_rsgf_all                            0.000062          13
 set_dd_magatom                          0.000048          13
 potlok_metagga                          0.000048          12
 set_kineden                             0.000039          10
 rotate_active_occupied_orbital          0.000015           1
 lprj_proall                             0.000008           1
 redis_pw_over_bands                     0.000003           1
 ---------------------------------------------------------------
  summed up times    38.4188458919525

 Accumulative profile
 ====================

             routine name                   CPU           calls
 ---------------------------------------------------------------
 total_time                             38.418846           1
 elmin                                  20.394129           1
 eddav                                  15.633899          15
 fft3d_mpi                               7.534144        9787
 fftbas_plan_mpi                         7.369076        9789
 hamiltmu                                4.898789        2172
 fftwav_mpi                              4.075110        5172
 kinhamil                                3.144028        4344
 fftext_mpi                              3.060102        4344
 dfftw_execute                           2.931623       29361
 setdij_                                 2.773215          39
 force_and_stress                        2.678400           1
 set_charge                              2.097238          11
 M_sumb_d                                1.490854       27666
 map_forward                             1.440151       10606
 m_alltoallv_z                           1.126376        9810
 vnlac0                                  1.020310        4344
 map_backward                            0.994370        8968
 soft_charge                             0.736324          11
 proj1                                   0.694095        3924
 strenl                                  0.658812           1
 M_alltoall_d                            0.653280       32088
 pdssyex_zheevx                          0.637579         315
 redis_pw                                0.635547       12444
 w1_projall                              0.606310        1542
 spher                                   0.580403          20
 redis_proj                              0.520143       15549
 orth1                                   0.461041        6537
 vhamil                                  0.441616        4344
 fordep                                  0.420508           1
 map_gather                              0.414342        9810
 M_bcast_z                               0.378666        3881
 map_scatter                             0.366951        9810
 gemm                                    0.335690       13032
 potlok                                  0.315532          12
 crpa_reader                             0.254461           1
 eccp                                    0.189332        1260
 w1_copy                                 0.171102       13032
 work_mul_crexp                          0.133673       13032
 crexp_mul_wave                          0.098588       11772
 overl                                   0.081786        7449
 setup_precond                           0.071291        1260
 M_bcast_d                               0.070911        2202
 brmix                                   0.055082          11
 overl1                                  0.054517        4344
 set_dd_paw                              0.053792          13
 pw_charge                               0.050226         828
 lincom                                  0.044878         336
 apply_precond                           0.040419        3084
 phase                                   0.031431         547
 densta                                  0.031252          16
 fornl                                   0.027823           1
 ggaall_grid                             0.020399          13
 orthch                                  0.019854           1
 truncate_high_frequency_w1              0.019276        5604
 broyd                                   0.013305          11
 setg0                                   0.013134          12
 proj                                    0.012919          21
 depsum                                  0.006703          11
 forhar                                  0.006279           2
 chggra                                  0.005753           1
 forloc                                  0.003161           1
 strehar                                 0.002643           1
 strelo                                  0.002592           1
 brgrid                                  0.001701           1
 brget                                   0.001649         368
 strkin                                  0.001442           1
 choleski                                0.000982          21
 brpre                                   0.000771          11
 brsav                                   0.000760         112
 vectorpot                               0.000064          12
 set_rsgf_all                            0.000062          13
 set_dd_magatom                          0.000048          13
 potlok_metagga                          0.000048          12
 set_kineden                             0.000039          10
 rotate_active_occupied_orbital          0.000015           1
 lprj_proall                             0.000008           1
 redis_pw_over_bands                     0.000003           1
 ---------------------------------------------------------------

Profiling took   0.765201  0.932180  0.005891  0.004532 seconds
Profiling took   0.740457 seconds
