 ----------------------------------------------------
    OOO  PPPP  EEEEE N   N M   M PPPP
   O   O P   P E     NN  N MM MM P   P
   O   O PPPP  EEEEE N N N M M M PPPP   -- VERSION
   O   O P     E     N  NN M   M P
    OOO  P     EEEEE N   N M   M P
 ----------------------------------------------------
 running   64 mpi-ranks, with    1 threads/rank
 distrk:  each k-point on   16 cores,    4 groups
 distr:  one band on    4 cores,    4 groups
 using from now: INCAR
 vasp.6.0.8 29Jun18 (build Jun 13 2019 12:54:44) complex

 POSCAR found type information on POSCAR  Hf Sb Pt
 POSCAR found :  3 types and       3 ions
 scaLAPACK will be used

 -----------------------------------------------------------------------------
|                                                                             |
|  ADVICE TO THIS USER RUNNING 'VASP/VAMP'   (HEAR YOUR MASTER'S VOICE ...):  |
|                                                                             |
|      You enforced a specific xc-type in the INCAR file,                     |
|      a different type was found on the POTCAR file                          |
|          I HOPE YOU KNOW, WHAT YOU ARE  DOING                               |
|                                                                             |
 -----------------------------------------------------------------------------

 LDA part: xc-table for Pade appr. of Perdew
 POSCAR, INCAR and KPOINTS ok, starting setup
 FFT: planning ...
 WAVECAR not read
 entering main loop
       N       E                     dE             d eps       ncg     rms          rms(c)
 ELPA: falling back to scaLAPACK
 ELPA: falling back to scaLAPACK
 ELPA: falling back to scaLAPACK
 ELPA: falling back to scaLAPACK
DAV:   1     0.143371429520E+03    0.14337E+03   -0.14422E+04  2688   0.175E+03
DAV:   2    -0.200234397082E+02   -0.16339E+03   -0.16184E+03  3432   0.345E+02
DAV:   3    -0.248148897857E+02   -0.47915E+01   -0.47169E+01  3544   0.524E+01
DAV:   4    -0.248809485405E+02   -0.66059E-01   -0.65924E-01  3368   0.650E+00
DAV:   5    -0.248825833519E+02   -0.16348E-02   -0.16343E-02  3648   0.911E-01    0.458E+01
DAV:   6    -0.241806249610E+02    0.70196E+00   -0.15433E+00  3504   0.927E+00    0.273E+01
DAV:   7    -0.240482476094E+02    0.13238E+00   -0.93080E-01  3728   0.535E+00    0.426E+00
DAV:   8    -0.240191822715E+02    0.29065E-01   -0.39059E-01  3568   0.379E+00    0.987E-01
DAV:   9    -0.240113260515E+02    0.78562E-02   -0.48996E-02  2912   0.176E+00    0.462E-01
DAV:  10    -0.240110536425E+02    0.27241E-03   -0.61007E-03  3704   0.441E-01    0.284E-01
DAV:  11    -0.240110172856E+02    0.36357E-04   -0.20367E-04  2992   0.108E-01    0.118E-01
DAV:  12    -0.240110099087E+02    0.73768E-05   -0.12468E-04  3696   0.611E-02    0.297E-02
DAV:  13    -0.240110083240E+02    0.15847E-05   -0.34832E-06  2832   0.149E-02    0.604E-03
DAV:  14    -0.240110081384E+02    0.18554E-06   -0.76801E-07  3800   0.533E-03    0.169E-03
DAV:  15    -0.240110081487E+02   -0.10215E-07   -0.18847E-08  1784   0.118E-03
   1 F= -.24011008E+02 E0= -.24010875E+02  d E =-.266716E-03
