<?xml version="1.0" encoding="ISO-8859-1"?>
<modeling>
 <generator>
  <i name="program" type="string">vasp </i>
  <i name="version" type="string">6.0.8  </i>
  <i name="subversion" type="string">29Jun18 (build Jun 13 2019 12:54:44) complex                          parallel </i>
  <i name="platform" type="string">IFC18_CrayMPICH </i>
  <i name="date" type="string">2021 12 05 </i>
  <i name="time" type="string">14:21:53 </i>
 </generator>
 <incar>
  <i type="int" name="KPAR">     4</i>
  <i type="int" name="NPAR">     4</i>
  <i type="int" name="ISTART">     0</i>
  <i type="string" name="PREC"> ACC</i>
  <i type="string" name="ALGO"> Normal</i>
  <i type="logical" name="ADDGRID"> T  </i>
  <i type="int" name="ISPIN">     1</i>
  <i type="int" name="NELMIN">     5</i>
  <i type="int" name="IBRION">    -1</i>
  <i name="EDIFF">      0.00000010</i>
  <i type="int" name="NSW">     0</i>
  <i type="int" name="ISIF">     3</i>
  <i name="ENCUT">    700.00000000</i>
  <i type="logical" name="LREAL"> F  </i>
  <i type="int" name="ISMEAR">     0</i>
  <i name="SIGMA">      0.01000000</i>
  <i type="logical" name="LWAVE"> F  </i>
  <i type="logical" name="LCHARG"> F  </i>
  <i type="logical" name="LVTOT"> F  </i>
  <i type="string" name="ALGO"> Normal</i>
  <i type="string" name="GGA"> PS</i>
  <i name="EDIFF">      0.00000010</i>
  <i type="int" name="ISPIN">     1</i>
 </incar>
 <structure name="primitive_cell" >
  <crystal>
   <varray name="basis" >
    <v>       0.00000000       3.13532895       3.13532895 </v>
    <v>       3.13532895       0.00000000       3.13532895 </v>
    <v>       3.13532895       3.13532895       0.00000000 </v>
   </varray>
   <i name="volume">     61.64237079 </i>
   <varray name="rec_basis" >
    <v>      -0.15947290       0.15947290       0.15947290 </v>
    <v>       0.15947290      -0.15947290       0.15947290 </v>
    <v>       0.15947290       0.15947290      -0.15947290 </v>
   </varray>
  </crystal>
  <varray name="positions" >
   <v>       0.75000000       0.75000000       0.75000000 </v>
   <v>       0.25000000       0.25000000       0.25000000 </v>
   <v>       0.00000000       0.00000000       0.00000000 </v>
  </varray>
 </structure>
 <varray name="primitive_index" >
  <v type="int" >        1 </v>
  <v type="int" >        2 </v>
  <v type="int" >        3 </v>
 </varray>
 <kpoints>
  <generation param="Gamma">
   <v type="int" name="divisions">      13       13       13 </v>
   <v name="usershift">      0.00000000       0.00000000       0.00000000 </v>
   <v name="genvec1">      0.07692308      -0.00000000       0.00000000 </v>
   <v name="genvec2">     -0.00000000       0.07692308      -0.00000000 </v>
   <v name="genvec3">      0.00000000       0.00000000       0.07692308 </v>
   <v name="shift">      0.00000000       0.00000000       0.00000000 </v>
  </generation>
  <varray name="kpointlist" >
   <v>       0.00000000       0.00000000       0.00000000 </v>
   <v>       0.07692308      -0.00000000      -0.00000000 </v>
   <v>       0.15384615      -0.00000000       0.00000000 </v>
   <v>       0.23076923       0.00000000      -0.00000000 </v>
   <v>       0.30769231      -0.00000000       0.00000000 </v>
   <v>       0.38461538      -0.00000000       0.00000000 </v>
   <v>       0.46153846       0.00000000      -0.00000000 </v>
   <v>       0.07692308       0.07692308       0.00000000 </v>
   <v>       0.15384615       0.07692308      -0.00000000 </v>
   <v>       0.23076923       0.07692308      -0.00000000 </v>
   <v>       0.30769231       0.07692308      -0.00000000 </v>
   <v>       0.38461538       0.07692308      -0.00000000 </v>
   <v>       0.46153846       0.07692308      -0.00000000 </v>
   <v>      -0.46153846       0.07692308       0.00000000 </v>
   <v>      -0.38461538       0.07692308       0.00000000 </v>
   <v>      -0.30769231       0.07692308       0.00000000 </v>
   <v>      -0.23076923       0.07692308       0.00000000 </v>
   <v>      -0.15384615       0.07692308       0.00000000 </v>
   <v>      -0.07692308       0.07692308      -0.00000000 </v>
   <v>       0.15384615       0.15384615       0.00000000 </v>
   <v>       0.23076923       0.15384615      -0.00000000 </v>
   <v>       0.30769231       0.15384615      -0.00000000 </v>
   <v>       0.38461538       0.15384615      -0.00000000 </v>
   <v>       0.46153846       0.15384615       0.00000000 </v>
   <v>      -0.46153846       0.15384615      -0.00000000 </v>
   <v>      -0.38461538       0.15384615       0.00000000 </v>
   <v>      -0.30769231       0.15384615       0.00000000 </v>
   <v>      -0.23076923       0.15384615       0.00000000 </v>
   <v>      -0.15384615       0.15384615      -0.00000000 </v>
   <v>       0.23076923       0.23076923       0.00000000 </v>
   <v>       0.30769231       0.23076923       0.00000000 </v>
   <v>       0.38461538       0.23076923      -0.00000000 </v>
   <v>       0.46153846       0.23076923      -0.00000000 </v>
   <v>      -0.46153846       0.23076923       0.00000000 </v>
   <v>      -0.38461538       0.23076923      -0.00000000 </v>
   <v>      -0.30769231       0.23076923      -0.00000000 </v>
   <v>      -0.23076923       0.23076923       0.00000000 </v>
   <v>       0.30769231       0.30769231       0.00000000 </v>
   <v>       0.38461538       0.30769231       0.00000000 </v>
   <v>       0.46153846       0.30769231       0.00000000 </v>
   <v>      -0.46153846       0.30769231       0.00000000 </v>
   <v>      -0.38461538       0.30769231      -0.00000000 </v>
   <v>      -0.30769231       0.30769231      -0.00000000 </v>
   <v>       0.38461538       0.38461538       0.00000000 </v>
   <v>       0.46153846       0.38461538       0.00000000 </v>
   <v>      -0.46153846       0.38461538       0.00000000 </v>
   <v>      -0.38461538       0.38461538       0.00000000 </v>
   <v>       0.46153846       0.46153846       0.00000000 </v>
   <v>      -0.46153846       0.46153846       0.00000000 </v>
   <v>       0.23076923       0.15384615       0.07692308 </v>
   <v>       0.30769231       0.15384615       0.07692308 </v>
   <v>       0.38461538       0.15384615       0.07692308 </v>
   <v>       0.46153846       0.15384615       0.07692308 </v>
   <v>      -0.46153846       0.15384615       0.07692308 </v>
   <v>       0.30769231       0.23076923       0.07692308 </v>
   <v>       0.38461538       0.23076923       0.07692308 </v>
   <v>       0.46153846       0.23076923       0.07692308 </v>
   <v>      -0.46153846       0.23076923       0.07692308 </v>
   <v>      -0.38461538       0.23076923       0.07692308 </v>
   <v>      -0.30769231       0.23076923       0.07692308 </v>
   <v>      -0.23076923       0.23076923       0.07692308 </v>
   <v>      -0.15384615       0.23076923       0.07692308 </v>
   <v>       0.38461538       0.30769231       0.07692308 </v>
   <v>       0.46153846       0.30769231       0.07692308 </v>
   <v>      -0.46153846       0.30769231       0.07692308 </v>
   <v>      -0.38461538       0.30769231       0.07692308 </v>
   <v>      -0.30769231       0.30769231       0.07692308 </v>
   <v>      -0.23076923       0.30769231       0.07692308 </v>
   <v>       0.46153846       0.38461538       0.07692308 </v>
   <v>      -0.46153846       0.38461538       0.07692308 </v>
   <v>      -0.38461538       0.38461538       0.07692308 </v>
   <v>      -0.30769231       0.38461538       0.07692308 </v>
   <v>      -0.46153846       0.46153846       0.07692308 </v>
   <v>      -0.38461538       0.46153846       0.07692308 </v>
   <v>       0.46153846       0.30769231       0.15384615 </v>
   <v>      -0.46153846       0.30769231       0.15384615 </v>
   <v>      -0.38461538       0.30769231       0.15384615 </v>
   <v>      -0.46153846       0.38461538       0.15384615 </v>
   <v>      -0.38461538       0.38461538       0.15384615 </v>
   <v>      -0.30769231       0.38461538       0.15384615 </v>
   <v>      -0.23076923       0.38461538       0.15384615 </v>
   <v>      -0.38461538       0.46153846       0.15384615 </v>
   <v>      -0.30769231       0.46153846       0.15384615 </v>
   <v>      -0.30769231       0.46153846       0.23076923 </v>
  </varray>
  <varray name="weights" >
   <v>       0.00045517 </v>
   <v>       0.00364133 </v>
   <v>       0.00364133 </v>
   <v>       0.00364133 </v>
   <v>       0.00364133 </v>
   <v>       0.00364133 </v>
   <v>       0.00364133 </v>
   <v>       0.00273100 </v>
   <v>       0.01092399 </v>
   <v>       0.01092399 </v>
   <v>       0.01092399 </v>
   <v>       0.01092399 </v>
   <v>       0.01092399 </v>
   <v>       0.01092399 </v>
   <v>       0.01092399 </v>
   <v>       0.01092399 </v>
   <v>       0.01092399 </v>
   <v>       0.01092399 </v>
   <v>       0.00546199 </v>
   <v>       0.00273100 </v>
   <v>       0.01092399 </v>
   <v>       0.01092399 </v>
   <v>       0.01092399 </v>
   <v>       0.01092399 </v>
   <v>       0.01092399 </v>
   <v>       0.01092399 </v>
   <v>       0.01092399 </v>
   <v>       0.01092399 </v>
   <v>       0.00546199 </v>
   <v>       0.00273100 </v>
   <v>       0.01092399 </v>
   <v>       0.01092399 </v>
   <v>       0.01092399 </v>
   <v>       0.01092399 </v>
   <v>       0.01092399 </v>
   <v>       0.01092399 </v>
   <v>       0.00546199 </v>
   <v>       0.00273100 </v>
   <v>       0.01092399 </v>
   <v>       0.01092399 </v>
   <v>       0.01092399 </v>
   <v>       0.01092399 </v>
   <v>       0.00546199 </v>
   <v>       0.00273100 </v>
   <v>       0.01092399 </v>
   <v>       0.01092399 </v>
   <v>       0.00546199 </v>
   <v>       0.00273100 </v>
   <v>       0.00546199 </v>
   <v>       0.01092399 </v>
   <v>       0.02184797 </v>
   <v>       0.02184797 </v>
   <v>       0.02184797 </v>
   <v>       0.02184797 </v>
   <v>       0.01092399 </v>
   <v>       0.02184797 </v>
   <v>       0.02184797 </v>
   <v>       0.02184797 </v>
   <v>       0.02184797 </v>
   <v>       0.02184797 </v>
   <v>       0.02184797 </v>
   <v>       0.01092399 </v>
   <v>       0.01092399 </v>
   <v>       0.02184797 </v>
   <v>       0.02184797 </v>
   <v>       0.02184797 </v>
   <v>       0.02184797 </v>
   <v>       0.01092399 </v>
   <v>       0.01092399 </v>
   <v>       0.02184797 </v>
   <v>       0.02184797 </v>
   <v>       0.01092399 </v>
   <v>       0.01092399 </v>
   <v>       0.01092399 </v>
   <v>       0.01092399 </v>
   <v>       0.02184797 </v>
   <v>       0.02184797 </v>
   <v>       0.01092399 </v>
   <v>       0.02184797 </v>
   <v>       0.02184797 </v>
   <v>       0.01092399 </v>
   <v>       0.01092399 </v>
   <v>       0.01092399 </v>
   <v>       0.01092399 </v>
  </varray>
 </kpoints>
 <parameters>
  <separator name="general" >
   <i type="string" name="SYSTEM">unknown system</i>
   <i type="logical" name="LCOMPAT"> F  </i>
  </separator>
  <separator name="electronic" >
   <i type="string" name="PREC">acc</i>
   <i name="ENMAX">    700.00000000</i>
   <i name="ENAUG">    380.87800000</i>
   <i name="EDIFF">      0.00000010</i>
   <i type="int" name="IALGO">    38</i>
   <i type="int" name="IWAVPR">    10</i>
   <i type="int" name="NBANDS">    16</i>
   <i type="int" name="NBANDSLOW">    -1</i>
   <i type="int" name="NBANDSHIGH">    -1</i>
   <i name="NELECT">     25.00000000</i>
   <i type="int" name="TURBO">     0</i>
   <i type="int" name="IRESTART">     0</i>
   <i type="int" name="NREBOOT">     0</i>
   <i type="int" name="NMIN">     0</i>
   <i name="EREF">      0.00000000</i>
   <separator name="electronic smearing" >
    <i type="int" name="ISMEAR">     0</i>
    <i name="SIGMA">      0.01000000</i>
    <i name="KSPACING">      0.50000000</i>
    <i type="logical" name="KGAMMA"> T  </i>
    <i type="logical" name="KBLOWUP"> T  </i>
   </separator>
   <separator name="electronic projectors" >
    <i type="logical" name="LREAL"> F  </i>
    <v name="ROPT">      0.00000000      0.00000000      0.00000000</v>
    <i type="int" name="LMAXPAW">  -100</i>
    <i type="int" name="LMAXMIX">     2</i>
    <i type="logical" name="NLSPLINE"> F  </i>
   </separator>
   <separator name="electronic startup" >
    <i type="int" name="ISTART">     0</i>
    <i type="int" name="ICHARG">     2</i>
    <i type="int" name="INIWAV">     1</i>
   </separator>
   <separator name="electronic spin" >
    <i type="int" name="ISPIN">     1</i>
    <i type="logical" name="LNONCOLLINEAR"> F  </i>
    <v name="MAGMOM">      1.00000000      1.00000000      1.00000000</v>
    <i name="NUPDOWN">     -1.00000000</i>
    <i type="logical" name="LSORBIT"> F  </i>
    <v name="SAXIS">      0.00000000      0.00000000      1.00000000</v>
    <i type="logical" name="LSPIRAL"> F  </i>
    <v name="QSPIRAL">      0.00000000      0.00000000      0.00000000</v>
    <i type="logical" name="LZEROZ"> F  </i>
   </separator>
   <separator name="electronic exchange-correlation" >
    <i type="logical" name="LASPH"> F  </i>
    <i type="logical" name="LMETAGGA"> F  </i>
   </separator>
   <separator name="electronic convergence" >
    <i type="int" name="NELM">    60</i>
    <i type="int" name="NELMDL">    -5</i>
    <i type="int" name="NELMIN">     5</i>
    <i name="ENINI">    700.00000000</i>
    <separator name="electronic convergence detail" >
     <i type="logical" name="LDIAG"> T  </i>
     <i type="logical" name="LSUBROT"> F  </i>
     <i name="WEIMIN">      0.00000000</i>
     <i name="EBREAK">      0.00000000</i>
     <i name="DEPER">      0.30000000</i>
     <i type="int" name="NRMM">     4</i>
     <i name="TIME">      0.40000000</i>
    </separator>
   </separator>
   <separator name="electronic mixer" >
    <i name="AMIX">      0.40000000</i>
    <i name="BMIX">      1.00000000</i>
    <i name="AMIN">      0.10000000</i>
    <i name="AMIX_MAG">      1.60000000</i>
    <i name="BMIX_MAG">      1.00000000</i>
    <separator name="electronic mixer details" >
     <i type="int" name="IMIX">     4</i>
     <i type="logical" name="MIXFIRST"> F  </i>
     <i type="int" name="MAXMIX">   -45</i>
     <i name="WC">    100.00000000</i>
     <i type="int" name="INIMIX">     1</i>
     <i type="int" name="MIXPRE">     1</i>
     <i type="int" name="MREMOVE">     5</i>
    </separator>
   </separator>
   <separator name="electronic dipolcorrection" >
    <i type="logical" name="LDIPOL"> F  </i>
    <i type="logical" name="LMONO"> F  </i>
    <i type="int" name="IDIPOL">     0</i>
    <i name="EPSILON">      1.00000000</i>
    <v name="DIPOL">   -100.00000000   -100.00000000   -100.00000000</v>
    <i name="EFIELD">      0.00000000</i>
   </separator>
  </separator>
  <separator name="grids" >
   <i type="int" name="NGX">    40</i>
   <i type="int" name="NGY">    40</i>
   <i type="int" name="NGZ">    40</i>
   <i type="int" name="NGXF">    80</i>
   <i type="int" name="NGYF">    80</i>
   <i type="int" name="NGZF">    80</i>
   <i type="logical" name="ADDGRID"> T  </i>
  </separator>
  <separator name="ionic" >
   <i type="int" name="NSW">     0</i>
   <i type="int" name="IBRION">    -1</i>
   <i type="int" name="MDALGO">     0</i>
   <i type="int" name="ISIF">     3</i>
   <i name="PSTRESS">      0.00000000</i>
   <i name="EDIFFG">      0.00000100</i>
   <i type="int" name="NFREE">     0</i>
   <i name="POTIM">      0.50000000</i>
   <i name="SMASS">     -3.00000000</i>
   <i name="SCALEE">      1.00000000</i>
  </separator>
  <separator name="ionic md" >
   <i name="TEBEG">      0.00010000</i>
   <i name="TEEND">      0.00010000</i>
   <i type="int" name="NBLOCK">     1</i>
   <i type="int" name="KBLOCK">     1</i>
   <i type="int" name="NPACO">   256</i>
   <i name="APACO">     16.00000000</i>
  </separator>
  <separator name="symmetry" >
   <i type="int" name="ISYM">     2</i>
   <i name="SYMPREC">      0.00001000</i>
  </separator>
  <separator name="dos" >
   <i type="int" name="LORBIT">     0</i>
   <v name="RWIGS">     -1.00000000     -1.00000000     -1.00000000</v>
   <i type="int" name="NEDOS">   301</i>
   <i name="EMIN">     10.00000000</i>
   <i name="EMAX">    -10.00000000</i>
   <i name="EFERMI">      0.00000000</i>
  </separator>
  <separator name="writing" >
   <i type="int" name="NWRITE">     2</i>
   <i type="logical" name="LWAVE"> F  </i>
   <i type="logical" name="LDOWNSAMPLE"> F  </i>
   <i type="logical" name="LCHARG"> F  </i>
   <i type="logical" name="LPARD"> F  </i>
   <i type="logical" name="LVTOT"> F  </i>
   <i type="logical" name="LVHAR"> F  </i>
   <i type="logical" name="LELF"> F  </i>
   <i type="logical" name="LOPTICS"> F  </i>
   <v name="STM">      0.00000000      0.00000000      0.00000000      0.00000000      0.00000000      0.00000000      0.00000000</v>
  </separator>
  <separator name="performance" >
   <i type="int" name="NPAR">     4</i>
   <i type="int" name="NSIM">     4</i>
   <i type="int" name="NBLK">    -1</i>
   <i type="logical" name="LPLANE"> T  </i>
   <i type="logical" name="LSCALAPACK"> T  </i>
   <i type="logical" name="LSCAAWARE"> F  </i>
   <i type="logical" name="LSCALU"> F  </i>
   <i type="logical" name="LASYNC"> F  </i>
   <i type="logical" name="LORBITALREAL"> F  </i>
  </separator>
  <separator name="miscellaneous" >
   <i type="int" name="IDIOT">     3</i>
   <i type="int" name="PHON_NSTRUCT">    -1</i>
   <i type="logical" name="LMUSIC"> F  </i>
   <v name="POMASS">    178.49000000    121.75000000    195.08000000</v>
   <v name="DARWINR">      0.00000000      0.00000000      0.00000000</v>
   <v name="DARWINV">      1.00000000      1.00000000      1.00000000</v>
   <i type="logical" name="LCORR"> T  </i>
  </separator>
  <i type="logical" name="GGA_COMPAT"> T  </i>
  <i type="logical" name="LBERRY"> F  </i>
  <i type="int" name="ICORELEVEL">     0</i>
  <i type="logical" name="LDAU"> F  </i>
  <i type="int" name="I_CONSTRAINED_M">     0</i>
  <separator name="electronic exchange-correlation" >
   <i type="string" name="GGA">PS</i>
   <i type="int" name="VOSKOWN">     0</i>
   <i type="logical" name="LHFCALC"> F  </i>
   <i type="string" name="PRECFOCK"></i>
   <i type="logical" name="LSYMGRAD"> F  </i>
   <i type="logical" name="LHFONE"> F  </i>
   <i type="logical" name="LRHFCALC"> F  </i>
   <i type="logical" name="LTHOMAS"> F  </i>
   <i type="logical" name="LMODELHF"> F  </i>
   <i type="logical" name="LFOCKACE"> F  </i>
   <i name="ENCUT4O">     -1.00000000</i>
   <i type="int" name="EXXOEP">     0</i>
   <i type="int" name="FOURORBIT">     0</i>
   <i name="AEXX">      0.00000000</i>
   <i name="HFALPHA">      0.00000000</i>
   <i name="MCALPHA">      0.00000000</i>
   <i name="ALDAX">      1.00000000</i>
   <i name="AGGAX">      1.00000000</i>
   <i name="ALDAC">      1.00000000</i>
   <i name="AGGAC">      1.00000000</i>
   <i type="int" name="NKREDX">     1</i>
   <i type="int" name="NKREDY">     1</i>
   <i type="int" name="NKREDZ">     1</i>
   <i type="logical" name="SHIFTRED"> F  </i>
   <i type="logical" name="ODDONLY"> F  </i>
   <i type="logical" name="EVENONLY"> F  </i>
   <i type="int" name="LMAXFOCK">     0</i>
   <i type="int" name="NMAXFOCKAE">     0</i>
   <i type="logical" name="LFOCKAEDFT"> F  </i>
   <i name="HFSCREEN">      0.00000000</i>
   <i name="HFSCREENC">      0.00000000</i>
   <i type="int" name="NBANDSGWLOW">     0</i>
  </separator>
  <separator name="vdW DFT" >
   <i type="logical" name="LUSE_VDW"> F  </i>
   <i name="Zab_VDW">     -0.84910000</i>
   <i name="PARAM1">      0.12340000</i>
   <i name="PARAM2">      1.00000000</i>
   <i name="PARAM3">      0.00000000</i>
  </separator>
  <separator name="model GW" >
   <i type="int" name="MODEL_GW">     0</i>
   <i name="MODEL_EPS0">     12.32847416</i>
   <i name="MODEL_ALPHA">      1.00000000</i>
  </separator>
  <separator name="linear response parameters" >
   <i type="logical" name="LEPSILON"> F  </i>
   <i type="logical" name="LRPA"> F  </i>
   <i type="logical" name="LNABLA"> F  </i>
   <i type="logical" name="LVEL"> F  </i>
   <i type="int" name="KINTER">     0</i>
   <i name="CSHIFT">      0.10000000</i>
   <i name="OMEGAMAX">     -1.00000000</i>
   <i name="DEG_THRESHOLD">      0.00200000</i>
   <i name="RTIME">     -0.10000000</i>
   <i name="WPLASMAI">      0.00000000</i>
   <v name="DFIELD">      0.00000000      0.00000000      0.00000000</v>
   <v name="WPLASMA">      0.00000000      0.00000000      0.00000000      0.00000000      0.00000000      0.00000000      0.00000000      0.00000000      0.00000000</v>
  </separator>
  <separator name="orbital magnetization" >
   <i type="logical" name="NUCIND"> F  </i>
   <v name="MAGPOS">      0.00000000      0.00000000      0.00000000</v>
   <i type="logical" name="LNICSALL"> T  </i>
   <i type="logical" name="ORBITALMAG"> F  </i>
   <i type="logical" name="LMAGBLOCH"> F  </i>
   <i type="logical" name="LCHIMAG"> F  </i>
   <i type="logical" name="LGAUGE"> T  </i>
   <i type="int" name="MAGATOM">     0</i>
   <v name="MAGDIPOL">      0.00000000      0.00000000      0.00000000</v>
   <v name="AVECCONST">      0.00000000      0.00000000      0.00000000</v>
  </separator>
  <separator name="response functions" >
   <i type="logical" name="LFINITE_TEMPERATURE"> F  </i>
   <i type="logical" name="LADDER"> F  </i>
   <i type="logical" name="LRPAFORCE"> F  </i>
   <i type="logical" name="LFXC"> F  </i>
   <i type="logical" name="LHARTREE"> T  </i>
   <i type="int" name="IBSE">     0</i>
   <v type="int" name="KPOINT">    -1     0     0     0</v>
   <i type="logical" name="LTCTC"> F  </i>
   <i type="logical" name="LTCTE"> F  </i>
   <i type="logical" name="LTETE"> F  </i>
   <i type="logical" name="LTRIPLET"> F  </i>
   <i type="logical" name="LFXCEPS"> F  </i>
   <i type="logical" name="LFXHEG"> F  </i>
   <i type="int" name="NATURALO">     2</i>
   <i type="logical" name="L2ORDER"> F  </i>
   <i type="logical" name="LDMP1"> F  </i>
   <i type="logical" name="LMP2LT"> F  </i>
   <i type="logical" name="LSMP2LT"> F  </i>
   <i type="logical" name="LUSEW"> F  </i>
   <i name="ENCUTGW">     -2.00000000</i>
   <i name="ENCUTGWSOFT">     -2.00000000</i>
   <i name="ENCUTLF">     -1.00000000</i>
   <i type="int" name="LMAXMP2">    -1</i>
   <i name="SCISSOR">      0.00000000</i>
   <i type="int" name="NOMEGA">     0</i>
   <i type="int" name="NOMEGAR">     0</i>
   <i type="int" name="NBANDSGW">    -1</i>
   <i type="int" name="NBANDSO">    -1</i>
   <i type="int" name="NBANDSV">    -1</i>
   <i type="int" name="NELM">     1</i>
   <i type="int" name="NELMHF">     1</i>
   <i type="int" name="DIM">     3</i>
   <i type="int" name="IESPILON">     4</i>
   <i type="int" name="ANTIRES">     0</i>
   <i name="OMEGAMAX">    -30.00000000</i>
   <i name="OMEGAMIN">    -30.00000000</i>
   <i name="OMEGATL">   -200.00000000</i>
   <i type="int" name="OMEGAGRID">   145</i>
   <i name="CSHIFT">     -0.10000000</i>
   <i type="logical" name="LSELFENERGY"> F  </i>
   <i type="logical" name="LSPECTRAL"> F  </i>
   <i type="logical" name="LSPECTRALGW"> F  </i>
   <i type="logical" name="LSINGLES"> F  </i>
   <i type="logical" name="LFERMIGW"> F  </i>
   <i type="logical" name="ODDONLYGW"> F  </i>
   <i type="logical" name="EVENONLYGW"> F  </i>
   <i type="int" name="NKREDLFX">     1</i>
   <i type="int" name="NKREDLFY">     1</i>
   <i type="int" name="NKREDLFZ">     1</i>
   <i type="int" name="MAXMEM">  2800</i>
   <i type="int" name="TELESCOPE">     0</i>
   <i type="int" name="NTAUPAR">     1</i>
   <i type="int" name="NOMEGAPAR">    -1</i>
   <i name="LAMBDA">      1.00000000</i>
  </separator>
  <separator name="External order field" >
   <i name="OFIELD_KAPPA">      0.00000000</i>
   <v name="OFIELD_K">      0.00000000      0.00000000      0.00000000</v>
   <i name="OFIELD_Q6_NEAR">      0.00000000</i>
   <i name="OFIELD_Q6_FAR">      0.00000000</i>
   <i name="OFIELD_A">      0.00000000</i>
  </separator>
 </parameters>
 <atominfo>
  <atoms>       3 </atoms>
  <types>       3 </types>
  <array name="atoms" >
   <dimension dim="1">ion</dimension>
   <field type="string">element</field>
   <field type="int">atomtype</field>
   <set>
    <rc><c>Hf</c><c>   1</c></rc>
    <rc><c>Sb</c><c>   2</c></rc>
    <rc><c>Pt</c><c>   3</c></rc>
   </set>
  </array>
  <array name="atomtypes" >
   <dimension dim="1">type</dimension>
   <field type="int">atomspertype</field>
   <field type="string">element</field>
   <field>mass</field>
   <field>valence</field>
   <field type="string">pseudopotential</field>
   <set>
    <rc><c>   1</c><c>Hf</c><c>    178.49000000</c><c>     10.00000000</c><c>  PAW_PBE Hf_pv 06Sep2000               </c></rc>
    <rc><c>   1</c><c>Sb</c><c>    121.75000000</c><c>      5.00000000</c><c>  PAW_PBE Sb 06Sep2000                  </c></rc>
    <rc><c>   1</c><c>Pt</c><c>    195.08000000</c><c>     10.00000000</c><c>  PAW_PBE Pt 04Feb2005                  </c></rc>
   </set>
  </array>
 </atominfo>
 <structure name="initialpos" >
  <crystal>
   <varray name="basis" >
    <v>       0.00000000       3.13532895       3.13532895 </v>
    <v>       3.13532895       0.00000000       3.13532895 </v>
    <v>       3.13532895       3.13532895       0.00000000 </v>
   </varray>
   <i name="volume">     61.64237079 </i>
   <varray name="rec_basis" >
    <v>      -0.15947290       0.15947290       0.15947290 </v>
    <v>       0.15947290      -0.15947290       0.15947290 </v>
    <v>       0.15947290       0.15947290      -0.15947290 </v>
   </varray>
  </crystal>
  <varray name="positions" >
   <v>       0.75000000       0.75000000       0.75000000 </v>
   <v>       0.25000000       0.25000000       0.25000000 </v>
   <v>       0.00000000       0.00000000       0.00000000 </v>
  </varray>
 </structure>
 <calculation>
  <scstep>
   <time name="dav">    0.90    0.92</time>
   <time name="total">    1.04    1.15</time>
   <energy>
    <i name="alphaZ">    110.52062791 </i>
    <i name="ewald">  -1585.81751482 </i>
    <i name="hartreedc">   -316.33592603 </i>
    <i name="XCdc">    -18.63260717 </i>
    <i name="pawpsdc">   1514.36848356 </i>
    <i name="pawaedc">  -1421.27055995 </i>
    <i name="eentropy">     -0.00000639 </i>
    <i name="bandstr">    119.43442119 </i>
    <i name="atom">   1741.10451121 </i>
    <i name="e_fr_energy">    143.37142952 </i>
    <i name="e_wo_entrp">    143.37143591 </i>
    <i name="e_0_energy">    143.37143271 </i>
   </energy>
  </scstep>
  <scstep>
   <time name="dav">    1.11    1.13</time>
   <time name="total">    1.11    1.14</time>
   <energy>
    <i name="e_fr_energy">    -20.02343971 </i>
    <i name="e_wo_entrp">    -20.02306226 </i>
    <i name="e_0_energy">    -20.02325099 </i>
   </energy>
  </scstep>
  <scstep>
   <time name="dav">    1.13    1.16</time>
   <time name="total">    1.14    1.16</time>
   <energy>
    <i name="e_fr_energy">    -24.81488979 </i>
    <i name="e_wo_entrp">    -24.81468459 </i>
    <i name="e_0_energy">    -24.81478719 </i>
   </energy>
  </scstep>
  <scstep>
   <time name="dav">    1.15    1.18</time>
   <time name="total">    1.16    1.19</time>
   <energy>
    <i name="e_fr_energy">    -24.88094854 </i>
    <i name="e_wo_entrp">    -24.88076567 </i>
    <i name="e_0_energy">    -24.88085711 </i>
   </energy>
  </scstep>
  <scstep>
   <time name="dav">    1.17    1.20</time>
   <time name="total">    1.42    1.45</time>
   <energy>
    <i name="e_fr_energy">    -24.88258335 </i>
    <i name="e_wo_entrp">    -24.88240123 </i>
    <i name="e_0_energy">    -24.88249229 </i>
   </energy>
  </scstep>
  <scstep>
   <time name="dav">    1.10    1.10</time>
   <time name="total">    1.46    1.48</time>
   <energy>
    <i name="e_fr_energy">    -24.18062496 </i>
    <i name="e_wo_entrp">    -24.18030913 </i>
    <i name="e_0_energy">    -24.18046705 </i>
   </energy>
  </scstep>
  <scstep>
   <time name="dav">    1.14    1.15</time>
   <time name="total">    1.46    1.51</time>
   <energy>
    <i name="e_fr_energy">    -24.04824761 </i>
    <i name="e_wo_entrp">    -24.04796418 </i>
    <i name="e_0_energy">    -24.04810590 </i>
   </energy>
  </scstep>
  <scstep>
   <time name="dav">    1.10    1.10</time>
   <time name="total">    1.48    1.50</time>
   <energy>
    <i name="e_fr_energy">    -24.01918227 </i>
    <i name="e_wo_entrp">    -24.01890392 </i>
    <i name="e_0_energy">    -24.01904310 </i>
   </energy>
  </scstep>
  <scstep>
   <time name="dav">    0.97    0.97</time>
   <time name="total">    1.31    1.33</time>
   <energy>
    <i name="e_fr_energy">    -24.01132605 </i>
    <i name="e_wo_entrp">    -24.01104643 </i>
    <i name="e_0_energy">    -24.01118624 </i>
   </energy>
  </scstep>
  <scstep>
   <time name="dav">    1.16    1.16</time>
   <time name="total">    1.50    1.53</time>
   <energy>
    <i name="e_fr_energy">    -24.01105364 </i>
    <i name="e_wo_entrp">    -24.01078876 </i>
    <i name="e_0_energy">    -24.01092120 </i>
   </energy>
  </scstep>
  <scstep>
   <time name="dav">    0.98    0.98</time>
   <time name="total">    1.31    1.33</time>
   <energy>
    <i name="e_fr_energy">    -24.01101729 </i>
    <i name="e_wo_entrp">    -24.01075306 </i>
    <i name="e_0_energy">    -24.01088517 </i>
   </energy>
  </scstep>
  <scstep>
   <time name="dav">    1.13    1.13</time>
   <time name="total">    1.48    1.52</time>
   <energy>
    <i name="e_fr_energy">    -24.01100991 </i>
    <i name="e_wo_entrp">    -24.01074235 </i>
    <i name="e_0_energy">    -24.01087613 </i>
   </energy>
  </scstep>
  <scstep>
   <time name="dav">    0.92    0.92</time>
   <time name="total">    1.25    1.29</time>
   <energy>
    <i name="e_fr_energy">    -24.01100832 </i>
    <i name="e_wo_entrp">    -24.01074134 </i>
    <i name="e_0_energy">    -24.01087483 </i>
   </energy>
  </scstep>
  <scstep>
   <time name="dav">    1.16    1.16</time>
   <time name="total">    1.53    1.56</time>
   <energy>
    <i name="e_fr_energy">    -24.01100814 </i>
    <i name="e_wo_entrp">    -24.01074140 </i>
    <i name="e_0_energy">    -24.01087477 </i>
   </energy>
  </scstep>
  <scstep>
   <time name="dav">    0.71    0.71</time>
   <time name="total">    0.86    0.88</time>
   <energy>
    <i name="alphaZ">    110.52062791 </i>
    <i name="ewald">  -1585.81751482 </i>
    <i name="hartreedc">   -295.93969826 </i>
    <i name="XCdc">    -19.20435716 </i>
    <i name="pawpsdc">   2800.40285895 </i>
    <i name="pawaedc">  -2712.95965768 </i>
    <i name="eentropy">     -0.00026672 </i>
    <i name="bandstr">    -62.11751159 </i>
    <i name="atom">   1741.10451121 </i>
    <i name="e_fr_energy">    -24.01100815 </i>
    <i name="e_wo_entrp">    -24.01074143 </i>
    <i name="e_0_energy">    -24.01087479 </i>
   </energy>
  </scstep>
  <structure>
   <crystal>
    <varray name="basis" >
     <v>       0.00000000       3.13532895       3.13532895 </v>
     <v>       3.13532895       0.00000000       3.13532895 </v>
     <v>       3.13532895       3.13532895       0.00000000 </v>
    </varray>
    <i name="volume">     61.64237079 </i>
    <varray name="rec_basis" >
     <v>      -0.15947290       0.15947290       0.15947290 </v>
     <v>       0.15947290      -0.15947290       0.15947290 </v>
     <v>       0.15947290       0.15947290      -0.15947290 </v>
    </varray>
   </crystal>
   <varray name="positions" >
    <v>       0.75000000       0.75000000       0.75000000 </v>
    <v>       0.25000000       0.25000000       0.25000000 </v>
    <v>       0.00000000       0.00000000       0.00000000 </v>
   </varray>
  </structure>
  <varray name="forces" >
   <v>      -0.00000000      -0.00000000      -0.00000000 </v>
   <v>      -0.00000000      -0.00000000      -0.00000000 </v>
   <v>       0.00000000       0.00000000       0.00000000 </v>
  </varray>
  <varray name="stress" >
   <v>      61.64942356       0.00000000      -0.00000000 </v>
   <v>       0.00000000      61.64942356       0.00000000 </v>
   <v>      -0.00000000       0.00000000      61.64942356 </v>
  </varray>
  <energy>
   <i name="e_fr_energy">    -24.01100815 </i>
   <i name="e_wo_entrp">    -24.01087479 </i>
   <i name="e_0_energy">     -0.00026672 </i>
  </energy>
  <time name="totalsc">   22.39   23.27</time>
  <eigenvalues>
   <array>
    <dimension dim="1">band</dimension>
    <dimension dim="2">kpoint</dimension>
    <dimension dim="3">spin</dimension>
    <field>eigene</field>
    <field>occ</field>
    <set>
     <set comment="spin 1">
      <set comment="kpoint 1">
       <r>  -22.6620    1.0000 </r>
       <r>  -22.6620    1.0000 </r>
       <r>  -22.6620    1.0000 </r>
       <r>   -3.6477    1.0000 </r>
       <r>    3.1775    1.0000 </r>
       <r>    3.1775    1.0000 </r>
       <r>    3.1775    1.0000 </r>
       <r>    3.9923    1.0000 </r>
       <r>    3.9923    1.0000 </r>
       <r>    7.7463    1.0000 </r>
       <r>    7.7463    1.0000 </r>
       <r>    7.7463    1.0000 </r>
       <r>    8.7840    1.0000 </r>
       <r>   10.4439    0.0000 </r>
       <r>   10.4439    0.0000 </r>
       <r>   10.4439    0.0000 </r>
      </set>
      <set comment="kpoint 2">
       <r>  -22.6633    1.0000 </r>
       <r>  -22.6619    1.0000 </r>
       <r>  -22.6619    1.0000 </r>
       <r>   -3.5788    1.0000 </r>
       <r>    3.1003    1.0000 </r>
       <r>    3.1442    1.0000 </r>
       <r>    3.1442    1.0000 </r>
       <r>    4.0387    1.0000 </r>
       <r>    4.0387    1.0000 </r>
       <r>    7.2211    1.0000 </r>
       <r>    7.6806    1.0000 </r>
       <r>    7.6806    1.0000 </r>
       <r>    8.9582    1.0000 </r>
       <r>   10.2745    0.0000 </r>
       <r>   10.2745    0.0000 </r>
       <r>   10.8646    0.0000 </r>
      </set>
      <set comment="kpoint 3">
       <r>  -22.6669    1.0000 </r>
       <r>  -22.6617    1.0000 </r>
       <r>  -22.6617    1.0000 </r>
       <r>   -3.3792    1.0000 </r>
       <r>    2.8849    1.0000 </r>
       <r>    3.0747    1.0000 </r>
       <r>    3.0747    1.0000 </r>
       <r>    4.1397    1.0000 </r>
       <r>    4.1397    1.0000 </r>
       <r>    6.3327    1.0000 </r>
       <r>    7.5166    1.0000 </r>
       <r>    7.5166    1.0000 </r>
       <r>    9.1441    1.0000 </r>
       <r>   10.1668    0.0000 </r>
       <r>   10.1668    0.0000 </r>
       <r>   11.6628    0.0000 </r>
      </set>
      <set comment="kpoint 4">
       <r>  -22.6719    1.0000 </r>
       <r>  -22.6614    1.0000 </r>
       <r>  -22.6614    1.0000 </r>
       <r>   -3.0712    1.0000 </r>
       <r>    2.5655    1.0000 </r>
       <r>    3.0131    1.0000 </r>
       <r>    3.0131    1.0000 </r>
       <r>    4.2311    1.0000 </r>
       <r>    4.2311    1.0000 </r>
       <r>    5.5082    1.0000 </r>
       <r>    7.3272    1.0000 </r>
       <r>    7.3272    1.0000 </r>
       <r>    9.2951    1.0000 </r>
       <r>   10.1930    0.0000 </r>
       <r>   10.1930    0.0000 </r>
       <r>   12.3398    0.0000 </r>
      </set>
      <set comment="kpoint 5">
       <r>  -22.6772    1.0000 </r>
       <r>  -22.6610    1.0000 </r>
       <r>  -22.6610    1.0000 </r>
       <r>   -2.6981    1.0000 </r>
       <r>    2.1814    1.0000 </r>
       <r>    2.9797    1.0000 </r>
       <r>    2.9797    1.0000 </r>
       <r>    4.2736    1.0000 </r>
       <r>    4.2736    1.0000 </r>
       <r>    4.8724    1.0000 </r>
       <r>    7.1758    1.0000 </r>
       <r>    7.1758    1.0000 </r>
       <r>    9.4343    1.0000 </r>
       <r>   10.3218    0.0000 </r>
       <r>   10.3218    0.0000 </r>
       <r>   11.8716    0.0000 </r>
      </set>
      <set comment="kpoint 6">
       <r>  -22.6816    1.0000 </r>
       <r>  -22.6608    1.0000 </r>
       <r>  -22.6608    1.0000 </r>
       <r>   -2.3338    1.0000 </r>
       <r>    1.8009    1.0000 </r>
       <r>    2.9728    1.0000 </r>
       <r>    2.9728    1.0000 </r>
       <r>    4.2680    1.0000 </r>
       <r>    4.2680    1.0000 </r>
       <r>    4.4642    1.0000 </r>
       <r>    7.0871    1.0000 </r>
       <r>    7.0871    1.0000 </r>
       <r>    9.5759    0.0000 </r>
       <r>   10.5025    0.0000 </r>
       <r>   10.5025    0.0000 </r>
       <r>   11.0960    0.0000 </r>
      </set>
      <set comment="kpoint 7">
       <r>  -22.6840    1.0000 </r>
       <r>  -22.6606    1.0000 </r>
       <r>  -22.6606    1.0000 </r>
       <r>   -2.0937    1.0000 </r>
       <r>    1.5472    1.0000 </r>
       <r>    2.9771    1.0000 </r>
       <r>    2.9771    1.0000 </r>
       <r>    4.2481    1.0000 </r>
       <r>    4.2481    1.0000 </r>
       <r>    4.2715    1.0000 </r>
       <r>    7.0510    1.0000 </r>
       <r>    7.0510    1.0000 </r>
       <r>    9.7103    0.0000 </r>
       <r>   10.6042    0.0000 </r>
       <r>   10.6461    0.0000 </r>
       <r>   10.6461    0.0000 </r>
      </set>
      <set comment="kpoint 8">
       <r>  -22.6632    1.0000 </r>
       <r>  -22.6621    1.0000 </r>
       <r>  -22.6621    1.0000 </r>
       <r>   -3.5562    1.0000 </r>
       <r>    2.9463    1.0000 </r>
       <r>    3.2096    1.0000 </r>
       <r>    3.2096    1.0000 </r>
       <r>    4.0272    1.0000 </r>
       <r>    4.0607    1.0000 </r>
       <r>    7.2756    1.0000 </r>
       <r>    7.5463    1.0000 </r>
       <r>    7.5463    1.0000 </r>
       <r>    9.0042    1.0000 </r>
       <r>   10.1605    0.0000 </r>
       <r>   10.6799    0.0000 </r>
       <r>   10.7378    0.0000 </r>
      </set>
      <set comment="kpoint 9">
       <r>  -22.6659    1.0000 </r>
       <r>  -22.6621    1.0000 </r>
       <r>  -22.6619    1.0000 </r>
       <r>   -3.4014    1.0000 </r>
       <r>    2.7293    1.0000 </r>
       <r>    3.1833    1.0000 </r>
       <r>    3.2091    1.0000 </r>
       <r>    4.0984    1.0000 </r>
       <r>    4.1273    1.0000 </r>
       <r>    6.5971    1.0000 </r>
       <r>    7.3526    1.0000 </r>
       <r>    7.4327    1.0000 </r>
       <r>    9.2066    1.0000 </r>
       <r>   10.0080    0.0000 </r>
       <r>   10.4375    0.0000 </r>
       <r>   11.2575    0.0000 </r>
      </set>
      <set comment="kpoint 10">
       <r>  -22.6704    1.0000 </r>
       <r>  -22.6620    1.0000 </r>
       <r>  -22.6616    1.0000 </r>
       <r>   -3.1317    1.0000 </r>
       <r>    2.4858    1.0000 </r>
       <r>    3.0813    1.0000 </r>
       <r>    3.1714    1.0000 </r>
       <r>    4.1948    1.0000 </r>
       <r>    4.2119    1.0000 </r>
       <r>    5.7822    1.0000 </r>
       <r>    7.1709    1.0000 </r>
       <r>    7.2636    1.0000 </r>
       <r>    9.4584    1.0000 </r>
       <r>    9.9898    0.0000 </r>
       <r>   10.3110    0.0000 </r>
       <r>   11.8552    0.0000 </r>
      </set>
      <set comment="kpoint 11">
       <r>  -22.6755    1.0000 </r>
       <r>  -22.6617    1.0000 </r>
       <r>  -22.6614    1.0000 </r>
       <r>   -2.7831    1.0000 </r>
       <r>    2.2023    1.0000 </r>
       <r>    2.9810    1.0000 </r>
       <r>    3.1293    1.0000 </r>
       <r>    4.2551    1.0000 </r>
       <r>    4.2723    1.0000 </r>
       <r>    5.0892    1.0000 </r>
       <r>    7.0469    1.0000 </r>
       <r>    7.0912    1.0000 </r>
       <r>    9.5366    0.4369 </r>
       <r>   10.2519    0.0000 </r>
       <r>   10.3175    0.0000 </r>
       <r>   11.9586    0.0000 </r>
      </set>
      <set comment="kpoint 12">
       <r>  -22.6800    1.0000 </r>
       <r>  -22.6613    1.0000 </r>
       <r>  -22.6613    1.0000 </r>
       <r>   -2.4179    1.0000 </r>
       <r>    1.8911    1.0000 </r>
       <r>    2.9306    1.0000 </r>
       <r>    3.0906    1.0000 </r>
       <r>    4.2668    1.0000 </r>
       <r>    4.2837    1.0000 </r>
       <r>    4.6057    1.0000 </r>
       <r>    6.9655    1.0000 </r>
       <r>    6.9890    1.0000 </r>
       <r>    9.5810    0.0000 </r>
       <r>   10.4382    0.0000 </r>
       <r>   10.5624    0.0000 </r>
       <r>   11.2834    0.0000 </r>
      </set>
      <set comment="kpoint 13">
       <r>  -22.6830    1.0000 </r>
       <r>  -22.6614    1.0000 </r>
       <r>  -22.6610    1.0000 </r>
       <r>   -2.1349    1.0000 </r>
       <r>    1.6346    1.0000 </r>
       <r>    2.9352    1.0000 </r>
       <r>    3.0457    1.0000 </r>
       <r>    4.2421    1.0000 </r>
       <r>    4.2625    1.0000 </r>
       <r>    4.3614    1.0000 </r>
       <r>    6.8937    1.0000 </r>
       <r>    6.9772    1.0000 </r>
       <r>    9.6850    0.0000 </r>
       <r>   10.5146    0.0000 </r>
       <r>   10.6031    0.0000 </r>
       <r>   10.9828    0.0000 </r>
      </set>
      <set comment="kpoint 14">
       <r>  -22.6838    1.0000 </r>
       <r>  -22.6616    1.0000 </r>
       <r>  -22.6607    1.0000 </r>
       <r>   -2.0513    1.0000 </r>
       <r>    1.5579    1.0000 </r>
       <r>    2.9785    1.0000 </r>
       <r>    2.9878    1.0000 </r>
       <r>    4.2009    1.0000 </r>
       <r>    4.2769    1.0000 </r>
       <r>    4.3159    1.0000 </r>
       <r>    6.8554    1.0000 </r>
       <r>    6.9951    1.0000 </r>
       <r>    9.7755    0.0000 </r>
       <r>   10.3189    0.0000 </r>
       <r>   10.6770    0.0000 </r>
       <r>   11.0328    0.0000 </r>
      </set>
      <set comment="kpoint 15">
       <r>  -22.6822    1.0000 </r>
       <r>  -22.6619    1.0000 </r>
       <r>  -22.6605    1.0000 </r>
       <r>   -2.2119    1.0000 </r>
       <r>    1.7121    1.0000 </r>
       <r>    2.9284    1.0000 </r>
       <r>    3.0423    1.0000 </r>
       <r>    4.2195    1.0000 </r>
       <r>    4.3087    1.0000 </r>
       <r>    4.4218    1.0000 </r>
       <r>    6.8304    1.0000 </r>
       <r>    7.0500    1.0000 </r>
       <r>    9.6908    0.0000 </r>
       <r>   10.5399    0.0000 </r>
       <r>   10.5766    0.0000 </r>
       <r>   11.0275    0.0000 </r>
      </set>
      <set comment="kpoint 16">
       <r>  -22.6786    1.0000 </r>
       <r>  -22.6622    1.0000 </r>
       <r>  -22.6606    1.0000 </r>
       <r>   -2.5354    1.0000 </r>
       <r>    2.0146    1.0000 </r>
       <r>    2.8905    1.0000 </r>
       <r>    3.1148    1.0000 </r>
       <r>    4.2320    1.0000 </r>
       <r>    4.3258    1.0000 </r>
       <r>    4.7480    1.0000 </r>
       <r>    6.8250    1.0000 </r>
       <r>    7.1630    1.0000 </r>
       <r>    9.6270    0.0000 </r>
       <r>   10.3695    0.0000 </r>
       <r>   10.4900    0.0000 </r>
       <r>   11.5196    0.0000 </r>
      </set>
      <set comment="kpoint 17">
       <r>  -22.6738    1.0000 </r>
       <r>  -22.6624    1.0000 </r>
       <r>  -22.6608    1.0000 </r>
       <r>   -2.9042    1.0000 </r>
       <r>    2.3522    1.0000 </r>
       <r>    2.8942    1.0000 </r>
       <r>    3.1877    1.0000 </r>
       <r>    4.2084    1.0000 </r>
       <r>    4.2979    1.0000 </r>
       <r>    5.3020    1.0000 </r>
       <r>    6.8737    1.0000 </r>
       <r>    7.3402    1.0000 </r>
       <r>    9.5991    0.0000 </r>
       <r>   10.1561    0.0000 </r>
       <r>   10.3131    0.0000 </r>
       <r>   11.8481    0.0000 </r>
      </set>
      <set comment="kpoint 18">
       <r>  -22.6689    1.0000 </r>
       <r>  -22.6625    1.0000 </r>
       <r>  -22.6612    1.0000 </r>
       <r>   -3.2321    1.0000 </r>
       <r>    2.6623    1.0000 </r>
       <r>    2.9469    1.0000 </r>
       <r>    3.2425    1.0000 </r>
       <r>    4.1404    1.0000 </r>
       <r>    4.2215    1.0000 </r>
       <r>    6.0365    1.0000 </r>
       <r>    7.0174    1.0000 </r>
       <r>    7.5426    1.0000 </r>
       <r>    9.4623    1.0000 </r>
       <r>   10.0164    0.0000 </r>
       <r>   10.2996    0.0000 </r>
       <r>   11.3375    0.0000 </r>
      </set>
      <set comment="kpoint 19">
       <r>  -22.6651    1.0000 </r>
       <r>  -22.6623    1.0000 </r>
       <r>  -22.6616    1.0000 </r>
       <r>   -3.4667    1.0000 </r>
       <r>    2.9215    1.0000 </r>
       <r>    3.0401    1.0000 </r>
       <r>    3.2366    1.0000 </r>
       <r>    4.0675    1.0000 </r>
       <r>    4.1206    1.0000 </r>
       <r>    6.7813    1.0000 </r>
       <r>    7.3095    1.0000 </r>
       <r>    7.6826    1.0000 </r>
       <r>    9.1762    1.0000 </r>
       <r>   10.0345    0.0000 </r>
       <r>   10.4429    0.0000 </r>
       <r>   10.8763    0.0000 </r>
      </set>
      <set comment="kpoint 20">
       <r>  -22.6668    1.0000 </r>
       <r>  -22.6625    1.0000 </r>
       <r>  -22.6625    1.0000 </r>
       <r>   -3.2963    1.0000 </r>
       <r>    2.4711    1.0000 </r>
       <r>    3.3000    1.0000 </r>
       <r>    3.3000    1.0000 </r>
       <r>    4.1103    1.0000 </r>
       <r>    4.1274    1.0000 </r>
       <r>    6.5570    1.0000 </r>
       <r>    7.1365    1.0000 </r>
       <r>    7.1365    1.0000 </r>
       <r>    9.1162    1.0000 </r>
       <r>   10.0816    0.0000 </r>
       <r>   10.4903    0.0000 </r>
       <r>   11.3707    0.0000 </r>
      </set>
      <set comment="kpoint 21">
       <r>  -22.6701    1.0000 </r>
       <r>  -22.6626    1.0000 </r>
       <r>  -22.6625    1.0000 </r>
       <r>   -3.0771    1.0000 </r>
       <r>    2.2350    1.0000 </r>
       <r>    3.2896    1.0000 </r>
       <r>    3.3261    1.0000 </r>
       <r>    4.1342    1.0000 </r>
       <r>    4.2098    1.0000 </r>
       <r>    6.0075    1.0000 </r>
       <r>    6.9468    1.0000 </r>
       <r>    6.9578    1.0000 </r>
       <r>    9.2887    1.0000 </r>
       <r>   10.0779    0.0000 </r>
       <r>   10.3371    0.0000 </r>
       <r>   11.7370    0.0000 </r>
      </set>
      <set comment="kpoint 22">
       <r>  -22.6744    1.0000 </r>
       <r>  -22.6626    1.0000 </r>
       <r>  -22.6625    1.0000 </r>
       <r>   -2.7744    1.0000 </r>
       <r>    2.0351    1.0000 </r>
       <r>    3.1776    1.0000 </r>
       <r>    3.3078    1.0000 </r>
       <r>    4.1979    1.0000 </r>
       <r>    4.2820    1.0000 </r>
       <r>    5.3482    1.0000 </r>
       <r>    6.7728    1.0000 </r>
       <r>    6.8312    1.0000 </r>
       <r>    9.4950    1.0000 </r>
       <r>   10.2567    0.0000 </r>
       <r>   10.2888    0.0000 </r>
       <r>   11.8652    0.0000 </r>
      </set>
      <set comment="kpoint 23">
       <r>  -22.6785    1.0000 </r>
       <r>  -22.6629    1.0000 </r>
       <r>  -22.6621    1.0000 </r>
       <r>   -2.4414    1.0000 </r>
       <r>    1.8700    1.0000 </r>
       <r>    3.0399    1.0000 </r>
       <r>    3.2606    1.0000 </r>
       <r>    4.2510    1.0000 </r>
       <r>    4.3108    1.0000 </r>
       <r>    4.8025    1.0000 </r>
       <r>    6.6128    1.0000 </r>
       <r>    6.7934    1.0000 </r>
       <r>    9.5144    0.9986 </r>
       <r>   10.3212    0.0000 </r>
       <r>   10.7671    0.0000 </r>
       <r>   11.3656    0.0000 </r>
      </set>
      <set comment="kpoint 24">
       <r>  -22.6813    1.0000 </r>
       <r>  -22.6635    1.0000 </r>
       <r>  -22.6616    1.0000 </r>
       <r>   -2.1579    1.0000 </r>
       <r>    1.7422    1.0000 </r>
       <r>    2.9438    1.0000 </r>
       <r>    3.1824    1.0000 </r>
       <r>    4.2330    1.0000 </r>
       <r>    4.3206    1.0000 </r>
       <r>    4.4908    1.0000 </r>
       <r>    6.5009    1.0000 </r>
       <r>    6.8013    1.0000 </r>
       <r>    9.5560    0.0019 </r>
       <r>   10.5101    0.0000 </r>
       <r>   10.6818    0.0000 </r>
       <r>   11.2741    0.0000 </r>
      </set>
      <set comment="kpoint 25">
       <r>  -22.6824    1.0000 </r>
       <r>  -22.6642    1.0000 </r>
       <r>  -22.6612    1.0000 </r>
       <r>   -2.0196    1.0000 </r>
       <r>    1.6835    1.0000 </r>
       <r>    2.9340    1.0000 </r>
       <r>    3.0760    1.0000 </r>
       <r>    4.1506    1.0000 </r>
       <r>    4.3445    1.0000 </r>
       <r>    4.4353    1.0000 </r>
       <r>    6.4240    1.0000 </r>
       <r>    6.8318    1.0000 </r>
       <r>    9.6997    0.0000 </r>
       <r>   10.2739    0.0000 </r>
       <r>   10.6890    0.0000 </r>
       <r>   11.5390    0.0000 </r>
      </set>
      <set comment="kpoint 26">
       <r>  -22.6815    1.0000 </r>
       <r>  -22.6647    1.0000 </r>
       <r>  -22.6607    1.0000 </r>
       <r>   -2.0871    1.0000 </r>
       <r>    1.7359    1.0000 </r>
       <r>    2.9638    1.0000 </r>
       <r>    3.0176    1.0000 </r>
       <r>    4.1489    1.0000 </r>
       <r>    4.3801    1.0000 </r>
       <r>    4.5038    1.0000 </r>
       <r>    6.3518    1.0000 </r>
       <r>    6.8957    1.0000 </r>
       <r>    9.7872    0.0000 </r>
       <r>   10.3244    0.0000 </r>
       <r>   10.6789    0.0000 </r>
       <r>   11.5111    0.0000 </r>
      </set>
      <set comment="kpoint 27">
       <r>  -22.6790    1.0000 </r>
       <r>  -22.6649    1.0000 </r>
       <r>  -22.6605    1.0000 </r>
       <r>   -2.3303    1.0000 </r>
       <r>    1.8944    1.0000 </r>
       <r>    2.8767    1.0000 </r>
       <r>    3.1586    1.0000 </r>
       <r>    4.1857    1.0000 </r>
       <r>    4.3980    1.0000 </r>
       <r>    4.7369    1.0000 </r>
       <r>    6.2788    1.0000 </r>
       <r>    7.0189    1.0000 </r>
       <r>    9.8019    0.0000 </r>
       <r>   10.4972    0.0000 </r>
       <r>   10.7442    0.0000 </r>
       <r>   11.3475    0.0000 </r>
      </set>
      <set comment="kpoint 28">
       <r>  -22.6754    1.0000 </r>
       <r>  -22.6646    1.0000 </r>
       <r>  -22.6605    1.0000 </r>
       <r>   -2.6574    1.0000 </r>
       <r>    2.1210    1.0000 </r>
       <r>    2.8390    1.0000 </r>
       <r>    3.2877    1.0000 </r>
       <r>    4.1885    1.0000 </r>
       <r>    4.3744    1.0000 </r>
       <r>    5.1714    1.0000 </r>
       <r>    6.2650    1.0000 </r>
       <r>    7.2058    1.0000 </r>
       <r>    9.9278    0.0000 </r>
       <r>   10.2623    0.0000 </r>
       <r>   10.6226    0.0000 </r>
       <r>   11.4779    0.0000 </r>
      </set>
      <set comment="kpoint 29">
       <r>  -22.6718    1.0000 </r>
       <r>  -22.6637    1.0000 </r>
       <r>  -22.6607    1.0000 </r>
       <r>   -2.9789    1.0000 </r>
       <r>    2.3857    1.0000 </r>
       <r>    2.8628    1.0000 </r>
       <r>    3.3319    1.0000 </r>
       <r>    4.1595    1.0000 </r>
       <r>    4.3092    1.0000 </r>
       <r>    5.6763    1.0000 </r>
       <r>    6.4663    1.0000 </r>
       <r>    7.4117    1.0000 </r>
       <r>    9.9687    0.0000 </r>
       <r>   10.0699    0.0000 </r>
       <r>   10.2747    0.0000 </r>
       <r>   11.2916    0.0000 </r>
      </set>
      <set comment="kpoint 30">
       <r>  -22.6720    1.0000 </r>
       <r>  -22.6630    1.0000 </r>
       <r>  -22.6630    1.0000 </r>
       <r>   -2.9162    1.0000 </r>
       <r>    2.0082    1.0000 </r>
       <r>    3.4307    1.0000 </r>
       <r>    3.4307    1.0000 </r>
       <r>    4.0434    1.0000 </r>
       <r>    4.2782    1.0000 </r>
       <r>    5.9070    1.0000 </r>
       <r>    6.7384    1.0000 </r>
       <r>    6.7384    1.0000 </r>
       <r>    9.0574    1.0000 </r>
       <r>   10.2144    0.0000 </r>
       <r>   10.2230    0.0000 </r>
       <r>   11.8681    0.0000 </r>
      </set>
      <set comment="kpoint 31">
       <r>  -22.6752    1.0000 </r>
       <r>  -22.6633    1.0000 </r>
       <r>  -22.6631    1.0000 </r>
       <r>   -2.6753    1.0000 </r>
       <r>    1.8516    1.0000 </r>
       <r>    3.4072    1.0000 </r>
       <r>    3.4688    1.0000 </r>
       <r>    4.0488    1.0000 </r>
       <r>    4.3574    1.0000 </r>
       <r>    5.4764    1.0000 </r>
       <r>    6.5365    1.0000 </r>
       <r>    6.6064    1.0000 </r>
       <r>    9.1557    1.0000 </r>
       <r>   10.0925    0.0000 </r>
       <r>   10.3826    0.0000 </r>
       <r>   11.8723    0.0000 </r>
      </set>
      <set comment="kpoint 32">
       <r>  -22.6783    1.0000 </r>
       <r>  -22.6641    1.0000 </r>
       <r>  -22.6630    1.0000 </r>
       <r>   -2.3998    1.0000 </r>
       <r>    1.7835    1.0000 </r>
       <r>    3.2499    1.0000 </r>
       <r>    3.4456    1.0000 </r>
       <r>    4.1464    1.0000 </r>
       <r>    4.4006    1.0000 </r>
       <r>    4.9692    1.0000 </r>
       <r>    6.3020    1.0000 </r>
       <r>    6.5664    1.0000 </r>
       <r>    9.2794    1.0000 </r>
       <r>   10.1054    0.0000 </r>
       <r>   10.8096    0.0000 </r>
       <r>   11.4662    0.0000 </r>
      </set>
      <set comment="kpoint 33">
       <r>  -22.6803    1.0000 </r>
       <r>  -22.6655    1.0000 </r>
       <r>  -22.6625    1.0000 </r>
       <r>   -2.1521    1.0000 </r>
       <r>    1.8025    1.0000 </r>
       <r>    3.0658    1.0000 </r>
       <r>    3.3618    1.0000 </r>
       <r>    4.1973    1.0000 </r>
       <r>    4.4181    1.0000 </r>
       <r>    4.6040    1.0000 </r>
       <r>    6.0976    1.0000 </r>
       <r>    6.5819    1.0000 </r>
       <r>    9.3342    1.0000 </r>
       <r>   10.3067    0.0000 </r>
       <r>   10.8865    0.0000 </r>
       <r>   11.3720    0.0000 </r>
      </set>
      <set comment="kpoint 34">
       <r>  -22.6809    1.0000 </r>
       <r>  -22.6670    1.0000 </r>
       <r>  -22.6619    1.0000 </r>
       <r>   -2.0000    1.0000 </r>
       <r>    1.8681    1.0000 </r>
       <r>    2.9263    1.0000 </r>
       <r>    3.2267    1.0000 </r>
       <r>    4.0833    1.0000 </r>
       <r>    4.4415    1.0000 </r>
       <r>    4.5717    1.0000 </r>
       <r>    5.9457    1.0000 </r>
       <r>    6.6185    1.0000 </r>
       <r>    9.4474    1.0000 </r>
       <r>   10.4326    0.0000 </r>
       <r>   10.6264    0.0000 </r>
       <r>   11.6168    0.0000 </r>
      </set>
      <set comment="kpoint 35">
       <r>  -22.6800    1.0000 </r>
       <r>  -22.6682    1.0000 </r>
       <r>  -22.6613    1.0000 </r>
       <r>   -1.9921    1.0000 </r>
       <r>    1.9017    1.0000 </r>
       <r>    2.9194    1.0000 </r>
       <r>    3.0728    1.0000 </r>
       <r>    4.0416    1.0000 </r>
       <r>    4.4684    1.0000 </r>
       <r>    4.6751    1.0000 </r>
       <r>    5.8350    1.0000 </r>
       <r>    6.6858    1.0000 </r>
       <r>    9.6537    0.0000 </r>
       <r>   10.2378    0.0000 </r>
       <r>   10.7874    0.0000 </r>
       <r>   11.5362    0.0000 </r>
      </set>
      <set comment="kpoint 36">
       <r>  -22.6784    1.0000 </r>
       <r>  -22.6684    1.0000 </r>
       <r>  -22.6608    1.0000 </r>
       <r>   -2.1330    1.0000 </r>
       <r>    1.9041    1.0000 </r>
       <r>    2.9392    1.0000 </r>
       <r>    3.0565    1.0000 </r>
       <r>    4.1084    1.0000 </r>
       <r>    4.4727    1.0000 </r>
       <r>    4.8403    1.0000 </r>
       <r>    5.7665    1.0000 </r>
       <r>    6.8125    1.0000 </r>
       <r>    9.7926    0.0000 </r>
       <r>   10.5152    0.0000 </r>
       <r>   10.6732    0.0000 </r>
       <r>   11.4334    0.0000 </r>
      </set>
      <set comment="kpoint 37">
       <r>  -22.6768    1.0000 </r>
       <r>  -22.6670    1.0000 </r>
       <r>  -22.6605    1.0000 </r>
       <r>   -2.3782    1.0000 </r>
       <r>    1.9642    1.0000 </r>
       <r>    2.8556    1.0000 </r>
       <r>    3.2209    1.0000 </r>
       <r>    4.1711    1.0000 </r>
       <r>    4.4392    1.0000 </r>
       <r>    5.0408    1.0000 </r>
       <r>    5.8530    1.0000 </r>
       <r>    7.0012    1.0000 </r>
       <r>    9.8901    0.0000 </r>
       <r>   10.4617    0.0000 </r>
       <r>   11.0725    0.0000 </r>
       <r>   11.3139    0.0000 </r>
      </set>
      <set comment="kpoint 38">
       <r>  -22.6776    1.0000 </r>
       <r>  -22.6636    1.0000 </r>
       <r>  -22.6636    1.0000 </r>
       <r>   -2.5069    1.0000 </r>
       <r>    1.7392    1.0000 </r>
       <r>    3.5720    1.0000 </r>
       <r>    3.5720    1.0000 </r>
       <r>    3.8917    1.0000 </r>
       <r>    4.4533    1.0000 </r>
       <r>    5.2838    1.0000 </r>
       <r>    6.4420    1.0000 </r>
       <r>    6.4420    1.0000 </r>
       <r>    8.9597    1.0000 </r>
       <r>    9.9073    0.0000 </r>
       <r>   10.4537    0.0000 </r>
       <r>   11.8132    0.0000 </r>
      </set>
      <set comment="kpoint 39">
       <r>  -22.6801    1.0000 </r>
       <r>  -22.6642    1.0000 </r>
       <r>  -22.6636    1.0000 </r>
       <r>   -2.3063    1.0000 </r>
       <r>    1.7333    1.0000 </r>
       <r>    3.4771    1.0000 </r>
       <r>    3.6001    1.0000 </r>
       <r>    3.9603    1.0000 </r>
       <r>    4.5175    1.0000 </r>
       <r>    4.9067    1.0000 </r>
       <r>    6.2436    1.0000 </r>
       <r>    6.3749    1.0000 </r>
       <r>    9.0063    1.0000 </r>
       <r>    9.8355    0.0000 </r>
       <r>   10.6901    0.0000 </r>
       <r>   11.5221    0.0000 </r>
      </set>
      <set comment="kpoint 40">
       <r>  -22.6814    1.0000 </r>
       <r>  -22.6657    1.0000 </r>
       <r>  -22.6634    1.0000 </r>
       <r>   -2.1198    1.0000 </r>
       <r>    1.8394    1.0000 </r>
       <r>    3.2631    1.0000 </r>
       <r>    3.5449    1.0000 </r>
       <r>    4.0993    1.0000 </r>
       <r>    4.5400    1.0000 </r>
       <r>    4.5577    1.0000 </r>
       <r>    5.9452    1.0000 </r>
       <r>    6.3812    1.0000 </r>
       <r>    9.0909    1.0000 </r>
       <r>    9.9812    0.0000 </r>
       <r>   10.9920    0.0000 </r>
       <r>   11.3171    0.0000 </r>
      </set>
      <set comment="kpoint 41">
       <r>  -22.6811    1.0000 </r>
       <r>  -22.6679    1.0000 </r>
       <r>  -22.6628    1.0000 </r>
       <r>   -1.9896    1.0000 </r>
       <r>    2.0154    1.0000 </r>
       <r>    3.0417    1.0000 </r>
       <r>    3.4121    1.0000 </r>
       <r>    3.9870    1.0000 </r>
       <r>    4.5508    1.0000 </r>
       <r>    4.5838    1.0000 </r>
       <r>    5.6590    1.0000 </r>
       <r>    6.4178    1.0000 </r>
       <r>    9.1915    1.0000 </r>
       <r>   10.3695    0.0000 </r>
       <r>   10.6095    0.0000 </r>
       <r>   11.3470    0.0000 </r>
      </set>
      <set comment="kpoint 42">
       <r>  -22.6794    1.0000 </r>
       <r>  -22.6702    1.0000 </r>
       <r>  -22.6621    1.0000 </r>
       <r>   -1.9437    1.0000 </r>
       <r>    2.1302    1.0000 </r>
       <r>    2.8654    1.0000 </r>
       <r>    3.2372    1.0000 </r>
       <r>    3.9052    1.0000 </r>
       <r>    4.5536    1.0000 </r>
       <r>    4.8067    1.0000 </r>
       <r>    5.4428    1.0000 </r>
       <r>    6.4882    1.0000 </r>
       <r>    9.3794    1.0000 </r>
       <r>   10.3250    0.0000 </r>
       <r>   10.8418    0.0000 </r>
       <r>   11.3195    0.0000 </r>
      </set>
      <set comment="kpoint 43">
       <r>  -22.6780    1.0000 </r>
       <r>  -22.6709    1.0000 </r>
       <r>  -22.6613    1.0000 </r>
       <r>   -1.9937    1.0000 </r>
       <r>    2.0358    1.0000 </r>
       <r>    2.9028    1.0000 </r>
       <r>    3.0672    1.0000 </r>
       <r>    3.9863    1.0000 </r>
       <r>    4.5295    1.0000 </r>
       <r>    4.9411    1.0000 </r>
       <r>    5.4261    1.0000 </r>
       <r>    6.6201    1.0000 </r>
       <r>    9.6337    0.0000 </r>
       <r>   10.2685    0.0000 </r>
       <r>   10.8450    0.0000 </r>
       <r>   11.2858    0.0000 </r>
      </set>
      <set comment="kpoint 44">
       <r>  -22.6824    1.0000 </r>
       <r>  -22.6640    1.0000 </r>
       <r>  -22.6640    1.0000 </r>
       <r>   -2.1875    1.0000 </r>
       <r>    1.7725    1.0000 </r>
       <r>    3.6882    1.0000 </r>
       <r>    3.6882    1.0000 </r>
       <r>    3.7421    1.0000 </r>
       <r>    4.6131    1.0000 </r>
       <r>    4.6168    1.0000 </r>
       <r>    6.2685    1.0000 </r>
       <r>    6.2685    1.0000 </r>
       <r>    8.8728    1.0000 </r>
       <r>    9.6388    0.0000 </r>
       <r>   10.5918    0.0000 </r>
       <r>   11.4512    0.0000 </r>
      </set>
      <set comment="kpoint 45">
       <r>  -22.6836    1.0000 </r>
       <r>  -22.6647    1.0000 </r>
       <r>  -22.6640    1.0000 </r>
       <r>   -2.0737    1.0000 </r>
       <r>    1.9055    1.0000 </r>
       <r>    3.4852    1.0000 </r>
       <r>    3.6876    1.0000 </r>
       <r>    3.9306    1.0000 </r>
       <r>    4.2943    1.0000 </r>
       <r>    4.6514    1.0000 </r>
       <r>    6.0915    1.0000 </r>
       <r>    6.2482    1.0000 </r>
       <r>    8.8999    1.0000 </r>
       <r>    9.6490    0.0000 </r>
       <r>   10.7565    0.0000 </r>
       <r>   11.2299    0.0000 </r>
      </set>
      <set comment="kpoint 46">
       <r>  -22.6832    1.0000 </r>
       <r>  -22.6666    1.0000 </r>
       <r>  -22.6636    1.0000 </r>
       <r>   -1.9884    1.0000 </r>
       <r>    2.0833    1.0000 </r>
       <r>    3.2682    1.0000 </r>
       <r>    3.5914    1.0000 </r>
       <r>    3.8755    1.0000 </r>
       <r>    4.3387    1.0000 </r>
       <r>    4.6472    1.0000 </r>
       <r>    5.7685    1.0000 </r>
       <r>    6.2766    1.0000 </r>
       <r>    8.9893    1.0000 </r>
       <r>    9.9344    0.0000 </r>
       <r>   10.7633    0.0000 </r>
       <r>   11.1762    0.0000 </r>
      </set>
      <set comment="kpoint 47">
       <r>  -22.6813    1.0000 </r>
       <r>  -22.6690    1.0000 </r>
       <r>  -22.6629    1.0000 </r>
       <r>   -1.9435    1.0000 </r>
       <r>    2.2047    1.0000 </r>
       <r>    3.0133    1.0000 </r>
       <r>    3.4251    1.0000 </r>
       <r>    3.8060    1.0000 </r>
       <r>    4.6157    1.0000 </r>
       <r>    4.6357    1.0000 </r>
       <r>    5.4720    1.0000 </r>
       <r>    6.3493    1.0000 </r>
       <r>    9.1425    1.0000 </r>
       <r>   10.4521    0.0000 </r>
       <r>   10.5127    0.0000 </r>
       <r>   11.0968    0.0000 </r>
      </set>
      <set comment="kpoint 48">
       <r>  -22.6851    1.0000 </r>
       <r>  -22.6643    1.0000 </r>
       <r>  -22.6643    1.0000 </r>
       <r>   -2.0302    1.0000 </r>
       <r>    2.0031    1.0000 </r>
       <r>    3.7005    1.0000 </r>
       <r>    3.7520    1.0000 </r>
       <r>    3.7520    1.0000 </r>
       <r>    4.0120    1.0000 </r>
       <r>    4.7107    1.0000 </r>
       <r>    6.1975    1.0000 </r>
       <r>    6.1975    1.0000 </r>
       <r>    8.8212    1.0000 </r>
       <r>    9.4801    1.0000 </r>
       <r>   10.5433    0.0000 </r>
       <r>   11.1864    0.0000 </r>
      </set>
      <set comment="kpoint 49">
       <r>  -22.6849    1.0000 </r>
       <r>  -22.6650    1.0000 </r>
       <r>  -22.6642    1.0000 </r>
       <r>   -2.0008    1.0000 </r>
       <r>    2.0782    1.0000 </r>
       <r>    3.5161    1.0000 </r>
       <r>    3.7172    1.0000 </r>
       <r>    3.8326    1.0000 </r>
       <r>    4.0288    1.0000 </r>
       <r>    4.7057    1.0000 </r>
       <r>    6.0483    1.0000 </r>
       <r>    6.2083    1.0000 </r>
       <r>    8.8620    1.0000 </r>
       <r>    9.5822    0.0000 </r>
       <r>   10.6928    0.0000 </r>
       <r>   11.1178    0.0000 </r>
      </set>
      <set comment="kpoint 50">
       <r>  -22.6686    1.0000 </r>
       <r>  -22.6628    1.0000 </r>
       <r>  -22.6616    1.0000 </r>
       <r>   -3.2130    1.0000 </r>
       <r>    2.4851    1.0000 </r>
       <r>    3.1039    1.0000 </r>
       <r>    3.3105    1.0000 </r>
       <r>    4.1317    1.0000 </r>
       <r>    4.2007    1.0000 </r>
       <r>    6.1748    1.0000 </r>
       <r>    6.8829    1.0000 </r>
       <r>    7.3882    1.0000 </r>
       <r>    9.4649    1.0000 </r>
       <r>    9.9619    0.0000 </r>
       <r>   10.3879    0.0000 </r>
       <r>   11.3050    0.0000 </r>
      </set>
      <set comment="kpoint 51">
       <r>  -22.6726    1.0000 </r>
       <r>  -22.6633    1.0000 </r>
       <r>  -22.6612    1.0000 </r>
       <r>   -2.9255    1.0000 </r>
       <r>    2.2454    1.0000 </r>
       <r>    3.0089    1.0000 </r>
       <r>    3.3127    1.0000 </r>
       <r>    4.1824    1.0000 </r>
       <r>    4.2856    1.0000 </r>
       <r>    5.5521    1.0000 </r>
       <r>    6.6116    1.0000 </r>
       <r>    7.2421    1.0000 </r>
       <r>    9.7329    0.0000 </r>
       <r>   10.0753    0.0000 </r>
       <r>   10.3204    0.0000 </r>
       <r>   11.6060    0.0000 </r>
      </set>
      <set comment="kpoint 52">
       <r>  -22.6769    1.0000 </r>
       <r>  -22.6635    1.0000 </r>
       <r>  -22.6610    1.0000 </r>
       <r>   -2.5838    1.0000 </r>
       <r>    2.0127    1.0000 </r>
       <r>    2.9433    1.0000 </r>
       <r>    3.2416    1.0000 </r>
       <r>    4.2210    1.0000 </r>
       <r>    4.3350    1.0000 </r>
       <r>    4.9638    1.0000 </r>
       <r>    6.5317    1.0000 </r>
       <r>    7.0703    1.0000 </r>
       <r>    9.6987    0.0000 </r>
       <r>   10.2821    0.0000 </r>
       <r>   10.5984    0.0000 </r>
       <r>   11.5912    0.0000 </r>
      </set>
      <set comment="kpoint 53">
       <r>  -22.6805    1.0000 </r>
       <r>  -22.6635    1.0000 </r>
       <r>  -22.6610    1.0000 </r>
       <r>   -2.2602    1.0000 </r>
       <r>    1.8004    1.0000 </r>
       <r>    2.9204    1.0000 </r>
       <r>    3.1455    1.0000 </r>
       <r>    4.2185    1.0000 </r>
       <r>    4.3384    1.0000 </r>
       <r>    4.5706    1.0000 </r>
       <r>    6.5307    1.0000 </r>
       <r>    6.9482    1.0000 </r>
       <r>    9.6760    0.0000 </r>
       <r>   10.4429    0.0000 </r>
       <r>   10.7595    0.0000 </r>
       <r>   11.1997    0.0000 </r>
      </set>
      <set comment="kpoint 54">
       <r>  -22.6826    1.0000 </r>
       <r>  -22.6634    1.0000 </r>
       <r>  -22.6610    1.0000 </r>
       <r>   -2.0544    1.0000 </r>
       <r>    1.6606    1.0000 </r>
       <r>    2.9314    1.0000 </r>
       <r>    3.0678    1.0000 </r>
       <r>    4.1784    1.0000 </r>
       <r>    4.3117    1.0000 </r>
       <r>    4.4232    1.0000 </r>
       <r>    6.5428    1.0000 </r>
       <r>    6.8937    1.0000 </r>
       <r>    9.7573    0.0000 </r>
       <r>   10.2726    0.0000 </r>
       <r>   10.6832    0.0000 </r>
       <r>   11.3825    0.0000 </r>
      </set>
      <set comment="kpoint 55">
       <r>  -22.6731    1.0000 </r>
       <r>  -22.6635    1.0000 </r>
       <r>  -22.6622    1.0000 </r>
       <r>   -2.8442    1.0000 </r>
       <r>    2.0274    1.0000 </r>
       <r>    3.2423    1.0000 </r>
       <r>    3.4119    1.0000 </r>
       <r>    4.1321    1.0000 </r>
       <r>    4.2880    1.0000 </r>
       <r>    5.6530    1.0000 </r>
       <r>    6.5052    1.0000 </r>
       <r>    6.9432    1.0000 </r>
       <r>    9.3927    1.0000 </r>
       <r>   10.1772    0.0000 </r>
       <r>   10.2877    0.0000 </r>
       <r>   11.7665    0.0000 </r>
      </set>
      <set comment="kpoint 56">
       <r>  -22.6764    1.0000 </r>
       <r>  -22.6644    1.0000 </r>
       <r>  -22.6620    1.0000 </r>
       <r>   -2.5531    1.0000 </r>
       <r>    1.8856    1.0000 </r>
       <r>    3.1405    1.0000 </r>
       <r>    3.3945    1.0000 </r>
       <r>    4.1870    1.0000 </r>
       <r>    4.3416    1.0000 </r>
       <r>    5.1683    1.0000 </r>
       <r>    6.2651    1.0000 </r>
       <r>    6.8354    1.0000 </r>
       <r>    9.5207    0.9817 </r>
       <r>   10.1403    0.0000 </r>
       <r>   10.6738    0.0000 </r>
       <r>   11.6610    0.0000 </r>
      </set>
      <set comment="kpoint 57">
       <r>  -22.6792    1.0000 </r>
       <r>  -22.6651    1.0000 </r>
       <r>  -22.6619    1.0000 </r>
       <r>   -2.2639    1.0000 </r>
       <r>    1.8156    1.0000 </r>
       <r>    3.0189    1.0000 </r>
       <r>    3.3182    1.0000 </r>
       <r>    4.2308    1.0000 </r>
       <r>    4.3522    1.0000 </r>
       <r>    4.7418    1.0000 </r>
       <r>    6.1621    1.0000 </r>
       <r>    6.7460    1.0000 </r>
       <r>    9.5354    0.5076 </r>
       <r>   10.2583    0.0000 </r>
       <r>   11.0160    0.0000 </r>
       <r>   11.2427    0.0000 </r>
      </set>
      <set comment="kpoint 58">
       <r>  -22.6809    1.0000 </r>
       <r>  -22.6659    1.0000 </r>
       <r>  -22.6617    1.0000 </r>
       <r>   -2.0536    1.0000 </r>
       <r>    1.8036    1.0000 </r>
       <r>    2.9123    1.0000 </r>
       <r>    3.2286    1.0000 </r>
       <r>    4.1616    1.0000 </r>
       <r>    4.3536    1.0000 </r>
       <r>    4.5695    1.0000 </r>
       <r>    6.0961    1.0000 </r>
       <r>    6.7167    1.0000 </r>
       <r>    9.5911    0.0000 </r>
       <r>   10.3512    0.0000 </r>
       <r>   10.6346    0.0000 </r>
       <r>   11.5965    0.0000 </r>
      </set>
      <set comment="kpoint 59">
       <r>  -22.6811    1.0000 </r>
       <r>  -22.6666    1.0000 </r>
       <r>  -22.6615    1.0000 </r>
       <r>   -1.9922    1.0000 </r>
       <r>    1.8153    1.0000 </r>
       <r>    2.8788    1.0000 </r>
       <r>    3.1524    1.0000 </r>
       <r>    4.0958    1.0000 </r>
       <r>    4.3777    1.0000 </r>
       <r>    4.5755    1.0000 </r>
       <r>    6.0439    1.0000 </r>
       <r>    6.7331    1.0000 </r>
       <r>    9.7391    0.0000 </r>
       <r>   10.1363    0.0000 </r>
       <r>   10.7157    0.0000 </r>
       <r>   11.6895    0.0000 </r>
      </set>
      <set comment="kpoint 60">
       <r>  -22.6799    1.0000 </r>
       <r>  -22.6668    1.0000 </r>
       <r>  -22.6611    1.0000 </r>
       <r>   -2.1037    1.0000 </r>
       <r>    1.8381    1.0000 </r>
       <r>    2.9111    1.0000 </r>
       <r>    3.1448    1.0000 </r>
       <r>    4.1384    1.0000 </r>
       <r>    4.4072    1.0000 </r>
       <r>    4.6715    1.0000 </r>
       <r>    5.9979    1.0000 </r>
       <r>    6.7984    1.0000 </r>
       <r>    9.7738    0.0000 </r>
       <r>   10.3133    0.0000 </r>
       <r>   10.6848    0.0000 </r>
       <r>   11.6110    0.0000 </r>
      </set>
      <set comment="kpoint 61">
       <r>  -22.6777    1.0000 </r>
       <r>  -22.6663    1.0000 </r>
       <r>  -22.6609    1.0000 </r>
       <r>   -2.3474    1.0000 </r>
       <r>    1.9057    1.0000 </r>
       <r>    2.9193    1.0000 </r>
       <r>    3.2501    1.0000 </r>
       <r>    4.1913    1.0000 </r>
       <r>    4.4036    1.0000 </r>
       <r>    4.9302    1.0000 </r>
       <r>    5.9819    1.0000 </r>
       <r>    6.9295    1.0000 </r>
       <r>    9.8204    0.0000 </r>
       <r>   10.2920    0.0000 </r>
       <r>   11.0341    0.0000 </r>
       <r>   11.3551    0.0000 </r>
      </set>
      <set comment="kpoint 62">
       <r>  -22.6751    1.0000 </r>
       <r>  -22.6650    1.0000 </r>
       <r>  -22.6609    1.0000 </r>
       <r>   -2.6461    1.0000 </r>
       <r>    2.0433    1.0000 </r>
       <r>    2.9414    1.0000 </r>
       <r>    3.3442    1.0000 </r>
       <r>    4.1902    1.0000 </r>
       <r>    4.3596    1.0000 </r>
       <r>    5.2871    1.0000 </r>
       <r>    6.1322    1.0000 </r>
       <r>    7.1057    1.0000 </r>
       <r>    9.8961    0.0000 </r>
       <r>   10.1464    0.0000 </r>
       <r>   10.6743    0.0000 </r>
       <r>   11.5158    0.0000 </r>
      </set>
      <set comment="kpoint 63">
       <r>  -22.6778    1.0000 </r>
       <r>  -22.6643    1.0000 </r>
       <r>  -22.6630    1.0000 </r>
       <r>   -2.4520    1.0000 </r>
       <r>    1.7671    1.0000 </r>
       <r>    3.3510    1.0000 </r>
       <r>    3.5299    1.0000 </r>
       <r>    4.0625    1.0000 </r>
       <r>    4.4207    1.0000 </r>
       <r>    5.1559    1.0000 </r>
       <r>    6.2181    1.0000 </r>
       <r>    6.5733    1.0000 </r>
       <r>    9.1911    1.0000 </r>
       <r>    9.9802    0.0000 </r>
       <r>   10.6598    0.0000 </r>
       <r>   11.6768    0.0000 </r>
      </set>
      <set comment="kpoint 64">
       <r>  -22.6798    1.0000 </r>
       <r>  -22.6656    1.0000 </r>
       <r>  -22.6629    1.0000 </r>
       <r>   -2.2230    1.0000 </r>
       <r>    1.7929    1.0000 </r>
       <r>    3.1886    1.0000 </r>
       <r>    3.5133    1.0000 </r>
       <r>    4.1647    1.0000 </r>
       <r>    4.4200    1.0000 </r>
       <r>    4.8000    1.0000 </r>
       <r>    5.9442    1.0000 </r>
       <r>    6.5353    1.0000 </r>
       <r>    9.2798    1.0000 </r>
       <r>   10.0076    0.0000 </r>
       <r>   11.0827    0.0000 </r>
       <r>   11.2438    0.0000 </r>
      </set>
      <set comment="kpoint 65">
       <r>  -22.6805    1.0000 </r>
       <r>  -22.6673    1.0000 </r>
       <r>  -22.6627    1.0000 </r>
       <r>   -2.0431    1.0000 </r>
       <r>    1.9130    1.0000 </r>
       <r>    2.9986    1.0000 </r>
       <r>    3.4353    1.0000 </r>
       <r>    4.1311    1.0000 </r>
       <r>    4.4051    1.0000 </r>
       <r>    4.6473    1.0000 </r>
       <r>    5.7237    1.0000 </r>
       <r>    6.5353    1.0000 </r>
       <r>    9.3505    1.0000 </r>
       <r>   10.2545    0.0000 </r>
       <r>   10.6390    0.0000 </r>
       <r>   11.4919    0.0000 </r>
      </set>
      <set comment="kpoint 66">
       <r>  -22.6799    1.0000 </r>
       <r>  -22.6691    1.0000 </r>
       <r>  -22.6623    1.0000 </r>
       <r>   -1.9572    1.0000 </r>
       <r>    2.0373    1.0000 </r>
       <r>    2.8412    1.0000 </r>
       <r>    3.3178    1.0000 </r>
       <r>    3.9888    1.0000 </r>
       <r>    4.4644    1.0000 </r>
       <r>    4.7113    1.0000 </r>
       <r>    5.5639    1.0000 </r>
       <r>    6.5639    1.0000 </r>
       <r>    9.4955    1.0000 </r>
       <r>   10.2703    0.0000 </r>
       <r>   10.6175    0.0000 </r>
       <r>   11.4008    0.0000 </r>
      </set>
      <set comment="kpoint 67">
       <r>  -22.6786    1.0000 </r>
       <r>  -22.6700    1.0000 </r>
       <r>  -22.6617    1.0000 </r>
       <r>   -1.9880    1.0000 </r>
       <r>    2.0163    1.0000 </r>
       <r>    2.8380    1.0000 </r>
       <r>    3.2036    1.0000 </r>
       <r>    4.0083    1.0000 </r>
       <r>    4.4847    1.0000 </r>
       <r>    4.8400    1.0000 </r>
       <r>    5.4940    1.0000 </r>
       <r>    6.6301    1.0000 </r>
       <r>    9.7099    0.0000 </r>
       <r>   10.1707    0.0000 </r>
       <r>   10.6746    0.0000 </r>
       <r>   11.4153    0.0000 </r>
      </set>
      <set comment="kpoint 68">
       <r>  -22.6780    1.0000 </r>
       <r>  -22.6689    1.0000 </r>
       <r>  -22.6612    1.0000 </r>
       <r>   -2.1299    1.0000 </r>
       <r>    1.9191    1.0000 </r>
       <r>    2.9104    1.0000 </r>
       <r>    3.1779    1.0000 </r>
       <r>    4.1178    1.0000 </r>
       <r>    4.4588    1.0000 </r>
       <r>    4.9270    1.0000 </r>
       <r>    5.6038    1.0000 </r>
       <r>    6.7569    1.0000 </r>
       <r>    9.8102    0.0000 </r>
       <r>   10.3488    0.0000 </r>
       <r>   10.6767    0.0000 </r>
       <r>   11.4238    0.0000 </r>
      </set>
      <set comment="kpoint 69">
       <r>  -22.6818    1.0000 </r>
       <r>  -22.6649    1.0000 </r>
       <r>  -22.6637    1.0000 </r>
       <r>   -2.1522    1.0000 </r>
       <r>    1.8116    1.0000 </r>
       <r>    3.3679    1.0000 </r>
       <r>    3.6559    1.0000 </r>
       <r>    4.0194    1.0000 </r>
       <r>    4.5096    1.0000 </r>
       <r>    4.6358    1.0000 </r>
       <r>    6.0051    1.0000 </r>
       <r>    6.3664    1.0000 </r>
       <r>    9.0237    1.0000 </r>
       <r>    9.7737    0.0000 </r>
       <r>   10.9240    0.0000 </r>
       <r>   11.2798    0.0000 </r>
      </set>
      <set comment="kpoint 70">
       <r>  -22.6821    1.0000 </r>
       <r>  -22.6666    1.0000 </r>
       <r>  -22.6636    1.0000 </r>
       <r>   -2.0250    1.0000 </r>
       <r>    1.9854    1.0000 </r>
       <r>    3.1720    1.0000 </r>
       <r>    3.6250    1.0000 </r>
       <r>    4.0678    1.0000 </r>
       <r>    4.3428    1.0000 </r>
       <r>    4.6137    1.0000 </r>
       <r>    5.6801    1.0000 </r>
       <r>    6.3970    1.0000 </r>
       <r>    9.1131    1.0000 </r>
       <r>    9.9072    0.0000 </r>
       <r>   10.7962    0.0000 </r>
       <r>   11.2704    0.0000 </r>
      </set>
      <set comment="kpoint 71">
       <r>  -22.6808    1.0000 </r>
       <r>  -22.6689    1.0000 </r>
       <r>  -22.6631    1.0000 </r>
       <r>   -1.9487    1.0000 </r>
       <r>    2.1779    1.0000 </r>
       <r>    2.9496    1.0000 </r>
       <r>    3.5118    1.0000 </r>
       <r>    3.8786    1.0000 </r>
       <r>    4.5381    1.0000 </r>
       <r>    4.6395    1.0000 </r>
       <r>    5.3824    1.0000 </r>
       <r>    6.4384    1.0000 </r>
       <r>    9.2439    1.0000 </r>
       <r>   10.2593    0.0000 </r>
       <r>   10.5281    0.0000 </r>
       <r>   11.0727    0.0000 </r>
      </set>
      <set comment="kpoint 72">
       <r>  -22.6789    1.0000 </r>
       <r>  -22.6709    1.0000 </r>
       <r>  -22.6624    1.0000 </r>
       <r>   -1.9349    1.0000 </r>
       <r>    2.2166    1.0000 </r>
       <r>    2.7864    1.0000 </r>
       <r>    3.3495    1.0000 </r>
       <r>    3.8776    1.0000 </r>
       <r>    4.5476    1.0000 </r>
       <r>    4.8870    1.0000 </r>
       <r>    5.2076    1.0000 </r>
       <r>    6.5070    1.0000 </r>
       <r>    9.4596    1.0000 </r>
       <r>   10.2355    0.0000 </r>
       <r>   10.7032    0.0000 </r>
       <r>   11.1141    0.0000 </r>
      </set>
      <set comment="kpoint 73">
       <r>  -22.6841    1.0000 </r>
       <r>  -22.6653    1.0000 </r>
       <r>  -22.6642    1.0000 </r>
       <r>   -2.0078    1.0000 </r>
       <r>    2.0478    1.0000 </r>
       <r>    3.3760    1.0000 </r>
       <r>    3.7160    1.0000 </r>
       <r>    3.9877    1.0000 </r>
       <r>    4.0712    1.0000 </r>
       <r>    4.6738    1.0000 </r>
       <r>    5.8820    1.0000 </r>
       <r>    6.2962    1.0000 </r>
       <r>    8.9326    1.0000 </r>
       <r>    9.6518    0.0000 </r>
       <r>   10.8525    0.0000 </r>
       <r>   11.0925    0.0000 </r>
      </set>
      <set comment="kpoint 74">
       <r>  -22.6829    1.0000 </r>
       <r>  -22.6670    1.0000 </r>
       <r>  -22.6639    1.0000 </r>
       <r>   -1.9654    1.0000 </r>
       <r>    2.1635    1.0000 </r>
       <r>    3.1772    1.0000 </r>
       <r>    3.6492    1.0000 </r>
       <r>    3.8745    1.0000 </r>
       <r>    4.2910    1.0000 </r>
       <r>    4.6447    1.0000 </r>
       <r>    5.5761    1.0000 </r>
       <r>    6.3621    1.0000 </r>
       <r>    9.0557    1.0000 </r>
       <r>    9.8659    0.0000 </r>
       <r>   10.7682    0.0000 </r>
       <r>   11.0026    0.0000 </r>
      </set>
      <set comment="kpoint 75">
       <r>  -22.6780    1.0000 </r>
       <r>  -22.6663    1.0000 </r>
       <r>  -22.6619    1.0000 </r>
       <r>   -2.3073    1.0000 </r>
       <r>    1.8371    1.0000 </r>
       <r>    3.0529    1.0000 </r>
       <r>    3.3945    1.0000 </r>
       <r>    4.2175    1.0000 </r>
       <r>    4.3645    1.0000 </r>
       <r>    4.9809    1.0000 </r>
       <r>    5.8573    1.0000 </r>
       <r>    6.7444    1.0000 </r>
       <r>    9.6283    0.0000 </r>
       <r>   10.0675    0.0000 </r>
       <r>   11.1347    0.0000 </r>
       <r>   11.2815    0.0000 </r>
      </set>
      <set comment="kpoint 76">
       <r>  -22.6791    1.0000 </r>
       <r>  -22.6680    1.0000 </r>
       <r>  -22.6621    1.0000 </r>
       <r>   -2.0957    1.0000 </r>
       <r>    1.8951    1.0000 </r>
       <r>    2.9322    1.0000 </r>
       <r>    3.3604    1.0000 </r>
       <r>    4.1685    1.0000 </r>
       <r>    4.3771    1.0000 </r>
       <r>    4.7978    1.0000 </r>
       <r>    5.6534    1.0000 </r>
       <r>    6.6606    1.0000 </r>
       <r>    9.6700    0.0000 </r>
       <r>   10.1639    0.0000 </r>
       <r>   10.6328    0.0000 </r>
       <r>   11.5512    0.0000 </r>
      </set>
      <set comment="kpoint 77">
       <r>  -22.6796    1.0000 </r>
       <r>  -22.6689    1.0000 </r>
       <r>  -22.6622    1.0000 </r>
       <r>   -1.9736    1.0000 </r>
       <r>    1.9984    1.0000 </r>
       <r>    2.8100    1.0000 </r>
       <r>    3.3464    1.0000 </r>
       <r>    4.0506    1.0000 </r>
       <r>    4.3917    1.0000 </r>
       <r>    4.7248    1.0000 </r>
       <r>    5.5696    1.0000 </r>
       <r>    6.6269    1.0000 </r>
[...]
       <r>    9.9745    0.0000 </r>
       <r>   10.6878    0.0000 </r>
       <r>   11.4135    0.0000 </r>
      </set>
      <set comment="kpoint 79">
       <r>  -22.6797    1.0000 </r>
       <r>  -22.6693    1.0000 </r>
       <r>  -22.6632    1.0000 </r>
       <r>   -1.9618    1.0000 </r>
       <r>    2.1317    1.0000 </r>
       <r>    2.8545    1.0000 </r>
       <r>    3.5623    1.0000 </r>
       <r>    4.0462    1.0000 </r>
       <r>    4.3810    1.0000 </r>
       <r>    4.7077    1.0000 </r>
       <r>    5.2600    1.0000 </r>
       <r>    6.5507    1.0000 </r>
       <r>    9.5277    0.8650 </r>
       <r>   10.1450    0.0000 </r>
       <r>   10.3100    0.0000 </r>
       <r>   11.1635    0.0000 </r>
      </set>
      <set comment="kpoint 80">
       <r>  -22.6787    1.0000 </r>
       <r>  -22.6707    1.0000 </r>
       <r>  -22.6630    1.0000 </r>
       <r>   -1.9305    1.0000 </r>
       <r>    2.2485    1.0000 </r>
       <r>    2.7249    1.0000 </r>
       <r>    3.5137    1.0000 </r>
       <r>    3.9413    1.0000 </r>
       <r>    4.4576    1.0000 </r>
       <r>    4.8148    1.0000 </r>
       <r>    5.0874    1.0000 </r>
       <r>    6.5702    1.0000 </r>
       <r>    9.7076    0.0000 </r>
       <r>   10.0449    0.0000 </r>
       <r>   10.3665    0.0000 </r>
       <r>   11.0285    0.0000 </r>
      </set>
      <set comment="kpoint 81">
       <r>  -22.6785    1.0000 </r>
       <r>  -22.6703    1.0000 </r>
       <r>  -22.6625    1.0000 </r>
       <r>   -1.9770    1.0000 </r>
       <r>    2.0906    1.0000 </r>
       <r>    2.8011    1.0000 </r>
       <r>    3.4316    1.0000 </r>
       <r>    4.0256    1.0000 </r>
       <r>    4.4335    1.0000 </r>
       <r>    4.8726    1.0000 </r>
       <r>    5.2270    1.0000 </r>
       <r>    6.5971    1.0000 </r>
       <r>    9.8027    0.0000 </r>
       <r>   10.0552    0.0000 </r>
       <r>   10.3448    0.0000 </r>
       <r>   11.3495    0.0000 </r>
      </set>
      <set comment="kpoint 82">
       <r>  -22.6815    1.0000 </r>
       <r>  -22.6680    1.0000 </r>
       <r>  -22.6639    1.0000 </r>
       <r>   -1.9577    1.0000 </r>
       <r>    2.1798    1.0000 </r>
       <r>    3.0070    1.0000 </r>
       <r>    3.6557    1.0000 </r>
       <r>    4.0898    1.0000 </r>
       <r>    4.2425    1.0000 </r>
       <r>    4.6063    1.0000 </r>
       <r>    5.3315    1.0000 </r>
       <r>    6.4807    1.0000 </r>
       <r>    9.2695    1.0000 </r>
       <r>    9.8835    0.0000 </r>
       <r>   10.5976    0.0000 </r>
       <r>   10.9936    0.0000 </r>
      </set>
      <set comment="kpoint 83">
       <r>  -22.6799    1.0000 </r>
       <r>  -22.6699    1.0000 </r>
       <r>  -22.6636    1.0000 </r>
       <r>   -1.9256    1.0000 </r>
       <r>    2.3199    1.0000 </r>
       <r>    2.8174    1.0000 </r>
       <r>    3.6144    1.0000 </r>
       <r>    3.9653    1.0000 </r>
       <r>    4.5069    1.0000 </r>
       <r>    4.5481    1.0000 </r>
       <r>    5.0856    1.0000 </r>
       <r>    6.5364    1.0000 </r>
       <r>    9.4716    1.0000 </r>
       <r>   10.0546    0.0000 </r>
       <r>   10.3843    0.0000 </r>
       <r>   10.8307    0.0000 </r>
      </set>
      <set comment="kpoint 84">
       <r>  -22.6788    1.0000 </r>
       <r>  -22.6708    1.0000 </r>
       <r>  -22.6636    1.0000 </r>
       <r>   -1.9200    1.0000 </r>
       <r>    2.3653    1.0000 </r>
       <r>    2.7155    1.0000 </r>
       <r>    3.6162    1.0000 </r>
       <r>    4.0688    1.0000 </r>
       <r>    4.4082    1.0000 </r>
       <r>    4.6122    1.0000 </r>
       <r>    4.9620    1.0000 </r>
       <r>    6.5834    1.0000 </r>
       <r>    9.7851    0.0000 </r>
       <r>   10.0295    0.0000 </r>
       <r>   10.0933    0.0000 </r>
       <r>   10.8303    0.0000 </r>
      </set>
     </set>
    </set>
   </array>
  </eigenvalues>
  <separator name="orbital magnetization" >
   <v name="MAGDIPOLOUT">      0.00000000      0.00000000      0.00000000</v>
  </separator>
  <dos>
   <i name="efermi">      9.53550892 </i>
   <total>
    <array>
     <dimension dim="1">gridpoints</dimension>
     <dimension dim="2">spin</dimension>
     <field>energy</field>
     <field>total</field>
     <field>integrated</field>
     <set>
      <set comment="spin 1">
       <r>   -24.4363     0.0000     0.0000 </r>
       <r>   -24.3079     0.0000     0.0000 </r>
       <r>   -24.1795     0.0000     0.0000 </r>
       <r>   -24.0511     0.0000     0.0000 </r>
       <r>   -23.9226     0.0000     0.0000 </r>
       <r>   -23.7942     0.0000     0.0000 </r>
       <r>   -23.6658     0.0000     0.0000 </r>
       <r>   -23.5374     0.0000     0.0000 </r>
       <r>   -23.4089     0.0000     0.0000 </r>
       <r>   -23.2805     0.0000     0.0000 </r>
       <r>   -23.1521     0.0000     0.0000 </r>
       <r>   -23.0237     0.0000     0.0000 </r>
       <r>   -22.8952     0.0000     0.0000 </r>
       <r>   -22.7668     0.0000     0.0000 </r>
       <r>   -22.6384    46.7107     5.9988 </r>
       <r>   -22.5100     0.0000     6.0000 </r>
       <r>   -22.3815     0.0000     6.0000 </r>
       <r>   -22.2531     0.0000     6.0000 </r>
       <r>   -22.1247     0.0000     6.0000 </r>
       <r>   -21.9963     0.0000     6.0000 </r>
       <r>   -21.8678     0.0000     6.0000 </r>
       <r>   -21.7394     0.0000     6.0000 </r>
       <r>   -21.6110     0.0000     6.0000 </r>
       <r>   -21.4826     0.0000     6.0000 </r>
       <r>   -21.3541     0.0000     6.0000 </r>
       <r>   -21.2257     0.0000     6.0000 </r>
       <r>   -21.0973     0.0000     6.0000 </r>
       <r>   -20.9689     0.0000     6.0000 </r>
       <r>   -20.8404     0.0000     6.0000 </r>
       <r>   -20.7120     0.0000     6.0000 </r>
       <r>   -20.5836     0.0000     6.0000 </r>
       <r>   -20.4552     0.0000     6.0000 </r>
       <r>   -20.3267     0.0000     6.0000 </r>
       <r>   -20.1983     0.0000     6.0000 </r>
       <r>   -20.0699     0.0000     6.0000 </r>
       <r>   -19.9415     0.0000     6.0000 </r>
       <r>   -19.8131     0.0000     6.0000 </r>
       <r>   -19.6846     0.0000     6.0000 </r>
       <r>   -19.5562     0.0000     6.0000 </r>
       <r>   -19.4278     0.0000     6.0000 </r>
       <r>   -19.2994     0.0000     6.0000 </r>
       <r>   -19.1709     0.0000     6.0000 </r>
       <r>   -19.0425     0.0000     6.0000 </r>
       <r>   -18.9141     0.0000     6.0000 </r>
       <r>   -18.7857     0.0000     6.0000 </r>
       <r>   -18.6572     0.0000     6.0000 </r>
       <r>   -18.5288     0.0000     6.0000 </r>
       <r>   -18.4004     0.0000     6.0000 </r>
       <r>   -18.2720     0.0000     6.0000 </r>
       <r>   -18.1435     0.0000     6.0000 </r>
       <r>   -18.0151     0.0000     6.0000 </r>
       <r>   -17.8867     0.0000     6.0000 </r>
       <r>   -17.7583     0.0000     6.0000 </r>
       <r>   -17.6298     0.0000     6.0000 </r>
       <r>   -17.5014     0.0000     6.0000 </r>
       <r>   -17.3730     0.0000     6.0000 </r>
       <r>   -17.2446     0.0000     6.0000 </r>
       <r>   -17.1161     0.0000     6.0000 </r>
       <r>   -16.9877     0.0000     6.0000 </r>
       <r>   -16.8593     0.0000     6.0000 </r>
       <r>   -16.7309     0.0000     6.0000 </r>
       <r>   -16.6024     0.0000     6.0000 </r>
       <r>   -16.4740     0.0000     6.0000 </r>
       <r>   -16.3456     0.0000     6.0000 </r>
       <r>   -16.2172     0.0000     6.0000 </r>
       <r>   -16.0887     0.0000     6.0000 </r>
       <r>   -15.9603     0.0000     6.0000 </r>
       <r>   -15.8319     0.0000     6.0000 </r>
       <r>   -15.7035     0.0000     6.0000 </r>
       <r>   -15.5750     0.0000     6.0000 </r>
       <r>   -15.4466     0.0000     6.0000 </r>
       <r>   -15.3182     0.0000     6.0000 </r>
       <r>   -15.1898     0.0000     6.0000 </r>
       <r>   -15.0613     0.0000     6.0000 </r>
       <r>   -14.9329     0.0000     6.0000 </r>
       <r>   -14.8045     0.0000     6.0000 </r>
       <r>   -14.6761     0.0000     6.0000 </r>
       <r>   -14.5476     0.0000     6.0000 </r>
       <r>   -14.4192     0.0000     6.0000 </r>
       <r>   -14.2908     0.0000     6.0000 </r>
       <r>   -14.1624     0.0000     6.0000 </r>
       <r>   -14.0339     0.0000     6.0000 </r>
       <r>   -13.9055     0.0000     6.0000 </r>
       <r>   -13.7771     0.0000     6.0000 </r>
       <r>   -13.6487     0.0000     6.0000 </r>
       <r>   -13.5202     0.0000     6.0000 </r>
       <r>   -13.3918     0.0000     6.0000 </r>
       <r>   -13.2634     0.0000     6.0000 </r>
       <r>   -13.1350     0.0000     6.0000 </r>
       <r>   -13.0065     0.0000     6.0000 </r>
       <r>   -12.8781     0.0000     6.0000 </r>
       <r>   -12.7497     0.0000     6.0000 </r>
       <r>   -12.6213     0.0000     6.0000 </r>
       <r>   -12.4928     0.0000     6.0000 </r>
       <r>   -12.3644     0.0000     6.0000 </r>
       <r>   -12.2360     0.0000     6.0000 </r>
       <r>   -12.1076     0.0000     6.0000 </r>
       <r>   -11.9791     0.0000     6.0000 </r>
       <r>   -11.8507     0.0000     6.0000 </r>
       <r>   -11.7223     0.0000     6.0000 </r>
       <r>   -11.5939     0.0000     6.0000 </r>
       <r>   -11.4654     0.0000     6.0000 </r>
       <r>   -11.3370     0.0000     6.0000 </r>
       <r>   -11.2086     0.0000     6.0000 </r>
       <r>   -11.0802     0.0000     6.0000 </r>
       <r>   -10.9517     0.0000     6.0000 </r>
       <r>   -10.8233     0.0000     6.0000 </r>
       <r>   -10.6949     0.0000     6.0000 </r>
       <r>   -10.5665     0.0000     6.0000 </r>
       <r>   -10.4380     0.0000     6.0000 </r>
       <r>   -10.3096     0.0000     6.0000 </r>
       <r>   -10.1812     0.0000     6.0000 </r>
       <r>   -10.0528     0.0000     6.0000 </r>
       <r>    -9.9243     0.0000     6.0000 </r>
       <r>    -9.7959     0.0000     6.0000 </r>
       <r>    -9.6675     0.0000     6.0000 </r>
       <r>    -9.5391     0.0000     6.0000 </r>
       <r>    -9.4106     0.0000     6.0000 </r>
       <r>    -9.2822     0.0000     6.0000 </r>
       <r>    -9.1538     0.0000     6.0000 </r>
       <r>    -9.0254     0.0000     6.0000 </r>
       <r>    -8.8969     0.0000     6.0000 </r>
       <r>    -8.7685     0.0000     6.0000 </r>
       <r>    -8.6401     0.0000     6.0000 </r>
       <r>    -8.5117     0.0000     6.0000 </r>
       <r>    -8.3833     0.0000     6.0000 </r>
       <r>    -8.2548     0.0000     6.0000 </r>
       <r>    -8.1264     0.0000     6.0000 </r>
       <r>    -7.9980     0.0000     6.0000 </r>
       <r>    -7.8696     0.0000     6.0000 </r>
       <r>    -7.7411     0.0000     6.0000 </r>
       <r>    -7.6127     0.0000     6.0000 </r>
       <r>    -7.4843     0.0000     6.0000 </r>
       <r>    -7.3559     0.0000     6.0000 </r>
       <r>    -7.2274     0.0000     6.0000 </r>
       <r>    -7.0990     0.0000     6.0000 </r>
       <r>    -6.9706     0.0000     6.0000 </r>
       <r>    -6.8422     0.0000     6.0000 </r>
       <r>    -6.7137     0.0000     6.0000 </r>
       <r>    -6.5853     0.0000     6.0000 </r>
       <r>    -6.4569     0.0000     6.0000 </r>
       <r>    -6.3285     0.0000     6.0000 </r>
       <r>    -6.2000     0.0000     6.0000 </r>
       <r>    -6.0716     0.0000     6.0000 </r>
       <r>    -5.9432     0.0000     6.0000 </r>
       <r>    -5.8148     0.0000     6.0000 </r>
       <r>    -5.6863     0.0000     6.0000 </r>
       <r>    -5.5579     0.0000     6.0000 </r>
       <r>    -5.4295     0.0000     6.0000 </r>
       <r>    -5.3011     0.0000     6.0000 </r>
       <r>    -5.1726     0.0000     6.0000 </r>
       <r>    -5.0442     0.0000     6.0000 </r>
       <r>    -4.9158     0.0000     6.0000 </r>
       <r>    -4.7874     0.0000     6.0000 </r>
       <r>    -4.6589     0.0000     6.0000 </r>
       <r>    -4.5305     0.0000     6.0000 </r>
       <r>    -4.4021     0.0000     6.0000 </r>
       <r>    -4.2737     0.0000     6.0000 </r>
       <r>    -4.1452     0.0000     6.0000 </r>
       <r>    -4.0168     0.0000     6.0000 </r>
       <r>    -3.8884     0.0000     6.0000 </r>
       <r>    -3.7600     0.0000     6.0000 </r>
       <r>    -3.6315     0.0070     6.0009 </r>
       <r>    -3.5031     0.0992     6.0137 </r>
       <r>    -3.3747     0.2119     6.0518 </r>
       <r>    -3.2463     0.0464     6.0597 </r>
       <r>    -3.1178     0.1659     6.1242 </r>
       <r>    -2.9894     0.0058     6.1546 </r>
       <r>    -2.8610     0.5544     6.2360 </r>
       <r>    -2.7326     0.3402     6.3013 </r>
       <r>    -2.6041     0.5111     6.3742 </r>
       <r>    -2.4757     0.5530     6.4889 </r>
       <r>    -2.3473     0.5997     6.6096 </r>
       <r>    -2.2189     0.9538     6.8262 </r>
       <r>    -2.0904     1.8773     7.1032 </r>
       <r>    -1.9620     3.1682     7.7350 </r>
       <r>    -1.8336     0.0000     8.0000 </r>
       <r>    -1.7052     0.0000     8.0000 </r>
       <r>    -1.5767     0.0000     8.0000 </r>
       <r>    -1.4483     0.0000     8.0000 </r>
       <r>    -1.3199     0.0000     8.0000 </r>
       <r>    -1.1915     0.0000     8.0000 </r>
       <r>    -1.0630     0.0000     8.0000 </r>
       <r>    -0.9346     0.0000     8.0000 </r>
       <r>    -0.8062     0.0000     8.0000 </r>
       <r>    -0.6778     0.0000     8.0000 </r>
       <r>    -0.5493     0.0000     8.0000 </r>
       <r>    -0.4209     0.0000     8.0000 </r>
       <r>    -0.2925     0.0000     8.0000 </r>
       <r>    -0.1641     0.0000     8.0000 </r>
       <r>    -0.0356     0.0000     8.0000 </r>
       <r>     0.0928     0.0000     8.0000 </r>
       <r>     0.2212     0.0000     8.0000 </r>
       <r>     0.3496     0.0000     8.0000 </r>
       <r>     0.4781     0.0000     8.0000 </r>
       <r>     0.6065     0.0000     8.0000 </r>
       <r>     0.7349     0.0000     8.0000 </r>
       <r>     0.8633     0.0000     8.0000 </r>
       <r>     0.9918     0.0000     8.0000 </r>
       <r>     1.1202     0.0000     8.0000 </r>
       <r>     1.2486     0.0000     8.0000 </r>
       <r>     1.3770     0.0000     8.0000 </r>
       <r>     1.5055     0.0000     8.0000 </r>
       <r>     1.6339     0.2486     8.0392 </r>
       <r>     1.7623     0.9384     8.2152 </r>
       <r>     1.8907     2.5491     8.7461 </r>
       <r>     2.0192     1.6199     9.2167 </r>
       <r>     2.1476     1.1024     9.5326 </r>
       <r>     2.2760     1.2759     9.7915 </r>
       <r>     2.4044     0.4250     9.8680 </r>
       <r>     2.5329     0.3828     9.9172 </r>
       <r>     2.6613     0.0753     9.9341 </r>
       <r>     2.7897     0.8055    10.0497 </r>
       <r>     2.9181     3.3211    10.6131 </r>
       <r>     3.0465     3.1747    11.5028 </r>
       <r>     3.1750     2.8047    12.1071 </r>
       <r>     3.3034     2.9759    12.7436 </r>
       <r>     3.4318     2.1867    13.3304 </r>
       <r>     3.5602     1.8132    13.6757 </r>
       <r>     3.6887     1.3334    13.9418 </r>
       <r>     3.8171     0.2089    14.0214 </r>
       <r>     3.9455     1.4802    14.2229 </r>
       <r>     4.0739     2.8342    14.7427 </r>
       <r>     4.2024     5.9055    15.7143 </r>
       <r>     4.3308     4.3023    16.6936 </r>
       <r>     4.4592     4.6041    17.7683 </r>
       <r>     4.5876     3.0797    18.3828 </r>
       <r>     4.7161     2.6652    18.9194 </r>
       <r>     4.8445     1.7350    19.2970 </r>
       <r>     4.9729     1.3734    19.5419 </r>
       <r>     5.1013     0.7478    19.6691 </r>
       <r>     5.2298     0.9619    19.7949 </r>
       <r>     5.3582     0.7098    19.9373 </r>
       <r>     5.4866     0.5464    20.0529 </r>
       <r>     5.6150     1.5216    20.2946 </r>
       <r>     5.7435     0.7648    20.4815 </r>
       <r>     5.8719     0.4348    20.6029 </r>
       <r>     6.0003     1.3037    20.7965 </r>
       <r>     6.1287     0.7333    21.0182 </r>
       <r>     6.2572     0.7317    21.1927 </r>
       <r>     6.3856     0.9532    21.4724 </r>
       <r>     6.5140     1.3175    21.7341 </r>
       <r>     6.6424     3.3004    22.4967 </r>
       <r>     6.7709     1.5147    22.7589 </r>
       <r>     6.8993     2.0471    23.1550 </r>
       <r>     7.0277     1.5863    23.4673 </r>
       <r>     7.1561     0.5701    23.6463 </r>
       <r>     7.2846     0.7751    23.8000 </r>
       <r>     7.4130     0.5595    23.8980 </r>
       <r>     7.5414     0.2078    23.9511 </r>
       <r>     7.6698     0.0103    23.9731 </r>
       <r>     7.7983     0.0213    24.0000 </r>
       <r>     7.9267     0.0000    24.0000 </r>
       <r>     8.0551     0.0000    24.0000 </r>
       <r>     8.1835     0.0000    24.0000 </r>
       <r>     8.3120     0.0000    24.0000 </r>
       <r>     8.4404     0.0000    24.0000 </r>
       <r>     8.5688     0.0000    24.0000 </r>
       <r>     8.6972     0.0000    24.0000 </r>
       <r>     8.8257     0.0384    24.0049 </r>
       <r>     8.9541     0.3650    24.0696 </r>
       <r>     9.0825     0.6156    24.1801 </r>
       <r>     9.2109     0.8604    24.3590 </r>
       <r>     9.3394     1.0579    24.5446 </r>
       <r>     9.4678     1.1668    24.7625 </r>
       <r>     9.5962     1.9868    25.1427 </r>
       <r>     9.7246     2.8176    25.5899 </r>
       <r>     9.8531     2.2164    26.0443 </r>
       <r>     9.9815     1.3227    26.2900 </r>
       <r>    10.1099     2.3766    26.7476 </r>
       <r>    10.2383     1.4160    27.1104 </r>
       <r>    10.3668     4.4874    28.0893 </r>
       <r>    10.4952     1.4199    28.3872 </r>
       <r>    10.6236     1.7719    28.8375 </r>
       <r>    10.7520     3.8270    29.5220 </r>
       <r>    10.8805     1.0868    29.8474 </r>
       <r>    11.0089     0.6993    29.9797 </r>
       <r>    11.1373     1.4415    30.3372 </r>
       <r>    11.2657     1.4974    30.6029 </r>
       <r>    11.3942     2.1272    31.0497 </r>
       <r>    11.5226     1.5745    31.3993 </r>
       <r>    11.6510     1.5609    31.7089 </r>
       <r>    11.7794     0.3345    31.8645 </r>
       <r>    11.9079     0.7797    31.9709 </r>
       <r>    12.0363     0.1701    31.9927 </r>
       <r>    12.1647     0.0000    31.9927 </r>
       <r>    12.2931     0.0000    31.9927 </r>
       <r>    12.4216     0.0000    32.0000 </r>
       <r>    12.5500     0.0000    32.0000 </r>
       <r>    12.6784     0.0000    32.0000 </r>
       <r>    12.8068     0.0000    32.0000 </r>
       <r>    12.9353     0.0000    32.0000 </r>
       <r>    13.0637     0.0000    32.0000 </r>
       <r>    13.1921     0.0000    32.0000 </r>
       <r>    13.3205     0.0000    32.0000 </r>
       <r>    13.4490     0.0000    32.0000 </r>
       <r>    13.5774     0.0000    32.0000 </r>
       <r>    13.7058     0.0000    32.0000 </r>
       <r>    13.8342     0.0000    32.0000 </r>
       <r>    13.9627     0.0000    32.0000 </r>
       <r>    14.0911     0.0000    32.0000 </r>
      </set>
     </set>
    </array>
   </total>
  </dos>
 </calculation>
 <structure name="finalpos" >
  <crystal>
   <varray name="basis" >
    <v>       0.00000000       3.13532895       3.13532895 </v>
    <v>       3.13532895       0.00000000       3.13532895 </v>
    <v>       3.13532895       3.13532895       0.00000000 </v>
   </varray>
   <i name="volume">     61.64237079 </i>
   <varray name="rec_basis" >
    <v>      -0.15947290       0.15947290       0.15947290 </v>
    <v>       0.15947290      -0.15947290       0.15947290 </v>
    <v>       0.15947290       0.15947290      -0.15947290 </v>
   </varray>
  </crystal>
  <varray name="positions" >
   <v>       0.75000000       0.75000000       0.75000000 </v>
   <v>       0.25000000       0.25000000       0.25000000 </v>
   <v>       0.00000000       0.00000000       0.00000000 </v>
  </varray>
 </structure>
</modeling>
