unknown system                          
            1
    -1.617864    1.617864    1.617864
     1.617864   -1.617864    1.617864
     1.617864    1.617864   -1.617864
   Ti
     1
Direct configuration=     1
   0.00000000  0.00000000  0.00000000
