   3   3   0   0
  0.2482818E+02  0.4722736E-09  0.4722736E-09  0.4722736E-09  0.5000000E-15
  1.000000000000000E-004
  CAR
 unknown system
     11.08663341    -27.13856062  301      7.10768365      1.00000000
    -27.139  0.0000E+00  0.0000E+00
    -27.011  0.0000E+00  0.0000E+00
    -26.884  0.0000E+00  0.0000E+00
    -26.756  0.0000E+00  0.0000E+00
    -26.629  0.0000E+00  0.0000E+00
    -26.501  0.0000E+00  0.0000E+00
    -26.374  0.0000E+00  0.0000E+00
    -26.247  0.0000E+00  0.0000E+00
    -26.119  0.0000E+00  0.0000E+00
    -25.992  0.0000E+00  0.0000E+00
    -25.864  0.0000E+00  0.0000E+00
    -25.737  0.0000E+00  0.0000E+00
    -25.610  0.0000E+00  0.0000E+00
    -25.482  0.0000E+00  0.0000E+00
    -25.355  0.4709E+02  0.6000E+01
    -25.227  0.0000E+00  0.6000E+01
    -25.100  0.0000E+00  0.6000E+01
    -24.972  0.0000E+00  0.6000E+01
    -24.845  0.0000E+00  0.6000E+01
    -24.718  0.0000E+00  0.6000E+01
    -24.590  0.0000E+00  0.6000E+01
    -24.463  0.0000E+00  0.6000E+01
    -24.335  0.0000E+00  0.6000E+01
    -24.208  0.0000E+00  0.6000E+01
    -24.081  0.0000E+00  0.6000E+01
    -23.953  0.0000E+00  0.6000E+01
    -23.826  0.0000E+00  0.6000E+01
    -23.698  0.0000E+00  0.6000E+01
    -23.571  0.0000E+00  0.6000E+01
    -23.443  0.0000E+00  0.6000E+01
    -23.316  0.0000E+00  0.6000E+01
    -23.189  0.0000E+00  0.6000E+01
    -23.061  0.0000E+00  0.6000E+01
    -22.934  0.0000E+00  0.6000E+01
    -22.806  0.0000E+00  0.6000E+01
    -22.679  0.0000E+00  0.6000E+01
    -22.552  0.0000E+00  0.6000E+01
    -22.424  0.0000E+00  0.6000E+01
    -22.297  0.0000E+00  0.6000E+01
    -22.169  0.0000E+00  0.6000E+01
    -22.042  0.0000E+00  0.6000E+01
    -21.914  0.0000E+00  0.6000E+01
    -21.787  0.0000E+00  0.6000E+01
    -21.660  0.0000E+00  0.6000E+01
    -21.532  0.0000E+00  0.6000E+01
    -21.405  0.0000E+00  0.6000E+01
    -21.277  0.0000E+00  0.6000E+01
    -21.150  0.0000E+00  0.6000E+01
    -21.023  0.0000E+00  0.6000E+01
    -20.895  0.0000E+00  0.6000E+01
    -20.768  0.0000E+00  0.6000E+01
    -20.640  0.0000E+00  0.6000E+01
    -20.513  0.0000E+00  0.6000E+01
    -20.385  0.0000E+00  0.6000E+01
    -20.258  0.0000E+00  0.6000E+01
    -20.131  0.0000E+00  0.6000E+01
    -20.003  0.0000E+00  0.6000E+01
    -19.876  0.0000E+00  0.6000E+01
    -19.748  0.0000E+00  0.6000E+01
    -19.621  0.0000E+00  0.6000E+01
    -19.494  0.0000E+00  0.6000E+01
    -19.366  0.0000E+00  0.6000E+01
    -19.239  0.0000E+00  0.6000E+01
    -19.111  0.0000E+00  0.6000E+01
    -18.984  0.0000E+00  0.6000E+01
    -18.856  0.0000E+00  0.6000E+01
    -18.729  0.0000E+00  0.6000E+01
    -18.602  0.0000E+00  0.6000E+01
    -18.474  0.0000E+00  0.6000E+01
    -18.347  0.0000E+00  0.6000E+01
    -18.219  0.0000E+00  0.6000E+01
    -18.092  0.0000E+00  0.6000E+01
    -17.965  0.0000E+00  0.6000E+01
    -17.837  0.0000E+00  0.6000E+01
    -17.710  0.0000E+00  0.6000E+01
    -17.582  0.0000E+00  0.6000E+01
    -17.455  0.0000E+00  0.6000E+01
    -17.327  0.0000E+00  0.6000E+01
    -17.200  0.0000E+00  0.6000E+01
    -17.073  0.0000E+00  0.6000E+01
    -16.945  0.0000E+00  0.6000E+01
    -16.818  0.0000E+00  0.6000E+01
    -16.690  0.0000E+00  0.6000E+01
    -16.563  0.0000E+00  0.6000E+01
    -16.436  0.0000E+00  0.6000E+01
    -16.308  0.0000E+00  0.6000E+01
    -16.181  0.0000E+00  0.6000E+01
    -16.053  0.0000E+00  0.6000E+01
    -15.926  0.0000E+00  0.6000E+01
    -15.798  0.0000E+00  0.6000E+01
    -15.671  0.0000E+00  0.6000E+01
    -15.544  0.0000E+00  0.6000E+01
    -15.416  0.0000E+00  0.6000E+01
    -15.289  0.0000E+00  0.6000E+01
    -15.161  0.0000E+00  0.6000E+01
    -15.034  0.0000E+00  0.6000E+01
    -14.906  0.0000E+00  0.6000E+01
    -14.779  0.0000E+00  0.6000E+01
    -14.652  0.0000E+00  0.6000E+01
    -14.524  0.0000E+00  0.6000E+01
    -14.397  0.0000E+00  0.6000E+01
    -14.269  0.0000E+00  0.6000E+01
    -14.142  0.0000E+00  0.6000E+01
    -14.015  0.0000E+00  0.6000E+01
    -13.887  0.0000E+00  0.6000E+01
    -13.760  0.0000E+00  0.6000E+01
    -13.632  0.0000E+00  0.6000E+01
    -13.505  0.0000E+00  0.6000E+01
    -13.377  0.0000E+00  0.6000E+01
    -13.250  0.0000E+00  0.6000E+01
    -13.123  0.0000E+00  0.6000E+01
    -12.995  0.0000E+00  0.6000E+01
    -12.868  0.0000E+00  0.6000E+01
    -12.740  0.0000E+00  0.6000E+01
    -12.613  0.0000E+00  0.6000E+01
    -12.486  0.0000E+00  0.6000E+01
    -12.358  0.0000E+00  0.6000E+01
    -12.231  0.0000E+00  0.6000E+01
    -12.103  0.0000E+00  0.6000E+01
    -11.976  0.0000E+00  0.6000E+01
    -11.848  0.0000E+00  0.6000E+01
    -11.721  0.0000E+00  0.6000E+01
    -11.594  0.0000E+00  0.6000E+01
    -11.466  0.0000E+00  0.6000E+01
    -11.339  0.0000E+00  0.6000E+01
    -11.211  0.0000E+00  0.6000E+01
    -11.084  0.0000E+00  0.6000E+01
    -10.957  0.0000E+00  0.6000E+01
    -10.829  0.0000E+00  0.6000E+01
    -10.702  0.0000E+00  0.6000E+01
    -10.574  0.0000E+00  0.6000E+01
    -10.447  0.0000E+00  0.6000E+01
    -10.319  0.0000E+00  0.6000E+01
    -10.192  0.0000E+00  0.6000E+01
    -10.065  0.0000E+00  0.6000E+01
     -9.937  0.0000E+00  0.6000E+01
     -9.810  0.0000E+00  0.6000E+01
     -9.682  0.0000E+00  0.6000E+01
     -9.555  0.0000E+00  0.6000E+01
     -9.428  0.0000E+00  0.6000E+01
     -9.300  0.0000E+00  0.6000E+01
     -9.173  0.0000E+00  0.6000E+01
     -9.045  0.0000E+00  0.6000E+01
     -8.918  0.0000E+00  0.6000E+01
     -8.790  0.0000E+00  0.6000E+01
     -8.663  0.0000E+00  0.6000E+01
     -8.536  0.0000E+00  0.6000E+01
     -8.408  0.0000E+00  0.6000E+01
     -8.281  0.0000E+00  0.6000E+01
     -8.153  0.0000E+00  0.6000E+01
     -8.026  0.0000E+00  0.6000E+01
     -7.899  0.0000E+00  0.6000E+01
     -7.771  0.0000E+00  0.6000E+01
     -7.644  0.0000E+00  0.6000E+01
     -7.516  0.0000E+00  0.6000E+01
     -7.389  0.0000E+00  0.6000E+01
     -7.261  0.0000E+00  0.6000E+01
     -7.134  0.0000E+00  0.6000E+01
     -7.007  0.0000E+00  0.6000E+01
     -6.879  0.0000E+00  0.6000E+01
     -6.752  0.0000E+00  0.6000E+01
     -6.624  0.0000E+00  0.6000E+01
     -6.497  0.0000E+00  0.6000E+01
     -6.370  0.0000E+00  0.6000E+01
     -6.242  0.0000E+00  0.6000E+01
     -6.115  0.0000E+00  0.6000E+01
     -5.987  0.0000E+00  0.6000E+01
     -5.860  0.0000E+00  0.6000E+01
     -5.732  0.0000E+00  0.6000E+01
     -5.605  0.0000E+00  0.6000E+01
     -5.478  0.0000E+00  0.6000E+01
     -5.350  0.0000E+00  0.6000E+01
     -5.223  0.0000E+00  0.6000E+01
     -5.095  0.0000E+00  0.6000E+01
     -4.968  0.0000E+00  0.6000E+01
     -4.841  0.0000E+00  0.6000E+01
     -4.713  0.0000E+00  0.6000E+01
     -4.586  0.3348E-10  0.6000E+01
     -4.458  0.9979E-01  0.6014E+01
     -4.331  0.3122E+00  0.6053E+01
     -4.203  0.3834E+00  0.6103E+01
     -4.076  0.2286E+00  0.6154E+01
     -3.949  0.5942E+00  0.6240E+01
     -3.821  0.4392E+00  0.6314E+01
     -3.694  0.8641E+00  0.6484E+01
     -3.566  0.1021E+01  0.6641E+01
     -3.439  0.1317E+01  0.6872E+01
     -3.312  0.2721E+01  0.7391E+01
     -3.184  0.2143E+01  0.8000E+01
     -3.057  0.0000E+00  0.8000E+01
     -2.929  0.0000E+00  0.8000E+01
     -2.802  0.0000E+00  0.8000E+01
     -2.674  0.0000E+00  0.8000E+01
     -2.547  0.0000E+00  0.8000E+01
     -2.420  0.0000E+00  0.8000E+01
     -2.292  0.0000E+00  0.8000E+01
     -2.165  0.0000E+00  0.8000E+01
     -2.037  0.0000E+00  0.8000E+01
     -1.910  0.0000E+00  0.8000E+01
     -1.783  0.0000E+00  0.8000E+01
     -1.655  0.0000E+00  0.8000E+01
     -1.528  0.0000E+00  0.8000E+01
     -1.400  0.0000E+00  0.8000E+01
     -1.273  0.0000E+00  0.8000E+01
     -1.145  0.0000E+00  0.8000E+01
     -1.018  0.0000E+00  0.8000E+01
     -0.891  0.0000E+00  0.8000E+01
     -0.763  0.0000E+00  0.8000E+01
     -0.636  0.0000E+00  0.8000E+01
     -0.508  0.0000E+00  0.8000E+01
     -0.381  0.0000E+00  0.8000E+01
     -0.254  0.0000E+00  0.8000E+01
     -0.126  0.0000E+00  0.8000E+01
      0.001  0.0000E+00  0.8000E+01
      0.129  0.0000E+00  0.8000E+01
      0.256  0.0000E+00  0.8000E+01
      0.384  0.2271E+00  0.8029E+01
      0.511  0.8520E+00  0.8138E+01
      0.638  0.1680E+01  0.8396E+01
      0.766  0.3021E+01  0.9088E+01
      0.893  0.1683E+01  0.9469E+01
      1.021  0.3269E+00  0.9746E+01
      1.148  0.6871E+00  0.9857E+01
      1.276  0.6463E-02  0.9869E+01
      1.403  0.4290E-01  0.9924E+01
      1.530  0.6082E-04  0.9946E+01
      1.658  0.5808E-01  0.9976E+01
      1.785  0.2347E+01  0.1035E+02
      1.913  0.5728E+01  0.1154E+02
      2.040  0.4702E+01  0.1238E+02
      2.167  0.2766E+01  0.1314E+02
      2.295  0.1799E+01  0.1355E+02
      2.422  0.1600E+01  0.1405E+02
      2.550  0.1410E+01  0.1437E+02
      2.677  0.1248E+01  0.1475E+02
      2.805  0.3194E+01  0.1542E+02
      2.932  0.5313E+01  0.1650E+02
      3.059  0.7373E+01  0.1809E+02
      3.187  0.5609E+01  0.1904E+02
      3.314  0.2168E+01  0.1955E+02
      3.442  0.8878E+00  0.1970E+02
      3.569  0.7004E+00  0.1985E+02
      3.696  0.5144E+00  0.2000E+02
      3.824  0.1853E+01  0.2027E+02
      3.951  0.1256E+01  0.2049E+02
      4.079  0.5923E+00  0.2062E+02
      4.206  0.1960E+01  0.2092E+02
      4.334  0.5570E+00  0.2110E+02
      4.461  0.1958E+01  0.2138E+02
      4.588  0.1919E+01  0.2166E+02
      4.716  0.3687E+01  0.2228E+02
      4.843  0.1373E+01  0.2266E+02
      4.971  0.2251E+01  0.2310E+02
      5.098  0.2023E+01  0.2344E+02
      5.225  0.9469E+00  0.2366E+02
      5.353  0.9431E+00  0.2380E+02
      5.480  0.6911E+00  0.2389E+02
      5.608  0.9979E-01  0.2394E+02
      5.735  0.8575E-01  0.2397E+02
      5.863  0.2141E-01  0.2400E+02
      5.990  0.2405E-05  0.2400E+02
      6.117  0.3449E-08  0.2401E+02
      6.245  0.1301E-01  0.2402E+02
      6.372  0.1190E-02  0.2403E+02
      6.500  0.9998E-01  0.2407E+02
      6.627  0.2859E+00  0.2410E+02
      6.754  0.8731E+00  0.2428E+02
      6.882  0.1257E+01  0.2446E+02
      7.009  0.1769E+01  0.2474E+02
      7.137  0.1808E+01  0.2511E+02
      7.264  0.1646E+01  0.2551E+02
      7.392  0.2838E+01  0.2607E+02
      7.519  0.1590E+01  0.2638E+02
      7.646  0.1800E+01  0.2678E+02
      7.774  0.3065E+01  0.2728E+02
      7.901  0.4333E+01  0.2820E+02
      8.029  0.2930E+01  0.2881E+02
      8.156  0.4776E+01  0.2959E+02
      8.283  0.1382E+01  0.3007E+02
      8.411  0.1215E+01  0.3034E+02
      8.538  0.2036E+01  0.3078E+02
      8.666  0.3459E+01  0.3138E+02
      8.793  0.1330E+01  0.3166E+02
      8.921  0.8090E+00  0.3186E+02
      9.048  0.7347E+00  0.3196E+02
      9.175  0.1715E+00  0.3199E+02
      9.303  0.1616E-11  0.3199E+02
      9.430  0.0000E+00  0.3200E+02
      9.558  0.0000E+00  0.3200E+02
      9.685  0.0000E+00  0.3200E+02
      9.812  0.0000E+00  0.3200E+02
      9.940  0.0000E+00  0.3200E+02
     10.067  0.0000E+00  0.3200E+02
     10.195  0.0000E+00  0.3200E+02
     10.322  0.0000E+00  0.3200E+02
     10.450  0.0000E+00  0.3200E+02
     10.577  0.0000E+00  0.3200E+02
     10.704  0.0000E+00  0.3200E+02
     10.832  0.0000E+00  0.3200E+02
     10.959  0.0000E+00  0.3200E+02
     11.087  0.0000E+00  0.3200E+02
