    3    3    1    1
  0.2482818E+02  0.4722736E-09  0.4722736E-09  0.4722736E-09  0.5000000E-15
  1.000000000000000E-004
  CAR
 unknown system
     25     84     16

  0.0000000E+00  0.0000000E+00  0.0000000E+00  0.4551661E-03
    1      -25.392679   1.000000
    2      -25.392679   1.000000
    3      -25.392679   1.000000
    4       -4.545096   1.000000
    5        1.955443   1.000000
    6        1.955443   1.000000
    7        1.955443   1.000000
    8        2.741602   1.000000
    9        2.741602   1.000000
   10        5.404141   1.000000
   11        5.841214   1.000000
   12        5.841214   1.000000
   13        5.841214   1.000000
   14        7.885456   0.000000
   15        7.885456   0.000000
   16        7.885456   0.000000

  0.7692308E-01 -0.3999586E-18  0.1120414E-17  0.3641329E-02
    1      -25.393159   1.000000
    2      -25.392686   1.000000
    3      -25.392686   1.000000
    4       -4.493298   1.000000
    5        1.866810   1.000000
    6        1.940623   1.000000
    7        1.940623   1.000000
    8        2.767218   1.000000
    9        2.767218   1.000000
   10        5.021364   1.000000
   11        5.774877   1.000000
   12        5.774877   1.000000
   13        6.017746   1.000000
   14        7.739635   0.000000
   15        7.739635   0.000000
   16        8.169125   0.000000

  0.1538462E+00  0.6553472E-17  0.6473583E-17  0.3641329E-02
    1      -25.394475   1.000000
    2      -25.392697   1.000000
    3      -25.392697   1.000000
    4       -4.343465   1.000000
    5        1.627311   1.000000
    6        1.908060   1.000000
    7        1.908060   1.000000
    8        2.827147   1.000000
    9        2.827147   1.000000
   10        4.375244   1.000000
   11        5.608469   1.000000
   12        5.608469   1.000000
   13        6.250054   1.000000
   14        7.665315   0.000000
   15        7.665315   0.000000
   16        8.795360   0.000000

  0.2307692E+00  0.3797906E-17 -0.1636539E-17  0.3641329E-02
    1      -25.396308   1.000000
    2      -25.392699   1.000000
    3      -25.392699   1.000000
    4       -4.113603   1.000000
    5        1.290999   1.000000
    6        1.878608   1.000000
    7        1.878608   1.000000
    8        2.887531   1.000000
    9        2.887531   1.000000
   10        3.754537   1.000000
   11        5.411541   1.000000
   12        5.411541   1.000000
   13        6.477147   1.000000
   14        7.708671   0.000000
   15        7.708671   0.000000
   16        9.349125   0.000000

  0.3076923E+00  0.1310694E-16  0.1294717E-16  0.3641329E-02
    1      -25.398253   1.000000
    2      -25.392716   1.000000
    3      -25.392716   1.000000
    4       -3.838189   1.000000
    5        0.914484   1.000000
    6        1.864180   1.000000
    7        1.864180   1.000000
    8        2.922507   1.000000
    9        2.922507   1.000000
   10        3.264648   1.000000
   11        5.243352   1.000000
   12        5.243352   1.000000
   13        6.691341   1.000000
   14        7.834918   0.000000
   15        7.834918   0.000000
   16        9.056844   0.000000

  0.3846154E+00  0.1964588E-16  0.7128687E-17  0.3641329E-02
    1      -25.399862   1.000000
    2      -25.392731   1.000000
    3      -25.392731   1.000000
    4       -3.574934   1.000000
    5        0.569649   1.000000
    6        1.864149   1.000000
    7        1.864149   1.000000
    8        2.927934   1.000000
    9        2.927934   1.000000
   10        2.942503   1.000000
   11        5.132231   1.000000
   12        5.132231   1.000000
   13        6.894655   1.000000
   14        7.996891   0.000000
   15        7.996891   0.000000
   16        8.452061   0.000000

  0.4615385E+00  0.1036591E-16 -0.6043182E-17  0.3641329E-02
    1      -25.400761   1.000000
    2      -25.392731   1.000000
    3      -25.392731   1.000000
    4       -3.406200   1.000000
    5        0.354483   1.000000
    6        1.868982   1.000000
    7        1.868982   1.000000
    8        2.786636   1.000000
    9        2.920902   1.000000
   10        2.920902   1.000000
   11        5.080096   1.000000
   12        5.080096   1.000000
   13        7.063815   1.000000
   14        8.039962   0.000000
   15        8.119657   0.000000
   16        8.119657   0.000000

  0.7692308E-01  0.7692308E-01  0.5275963E-17  0.2730997E-02
    1      -25.393157   1.000000
    2      -25.392775   1.000000
    3      -25.392775   1.000000
    4       -4.476331   1.000000
    5        1.761141   1.000000
    6        1.981580   1.000000
    7        1.981580   1.000000
    8        2.768771   1.000000
    9        2.771869   1.000000
   10        5.009518   1.000000
   11        5.659306   1.000000
   12        5.659306   1.000000
   13        6.154408   1.000000
   14        7.580803   0.000000
   15        8.129191   0.000000
   16        8.129757   0.000000

  0.1538462E+00  0.7692308E-01 -0.1448136E-18  0.1092399E-01
    1      -25.394127   1.000000
    2      -25.392848   1.000000
    3      -25.392768   1.000000
    4       -4.360106   1.000000
    5        1.554277   1.000000
    6        1.965443   1.000000
    7        1.992279   1.000000
    8        2.806106   1.000000
    9        2.815601   1.000000
   10        4.556554   1.000000
   11        5.478034   1.000000
   12        5.496320   1.000000
   13        6.389591   1.000000
   14        7.464961   0.000000
   15        7.883679   0.000000
   16        8.511338   0.000000

  0.2307692E+00  0.7692308E-01  0.7914494E-17  0.1092399E-01
    1      -25.395757   1.000000
    2      -25.392903   1.000000
    3      -25.392767   1.000000
    4       -4.158389   1.000000
    5        1.288504   1.000000
    6        1.903722   1.000000
    7        1.982196   1.000000
    8        2.859568   1.000000
    9        2.878369   1.000000
   10        3.958764   1.000000
   11        5.293426   1.000000
   12        5.314132   1.000000
   13        6.655584   1.000000
   14        7.494730   0.000000
   15        7.806856   0.000000
   16        8.969535   0.000000

  0.3076923E+00  0.7692308E-01  0.6328770E-17  0.1092399E-01
    1      -25.397623   1.000000
    2      -25.392929   1.000000
    3      -25.392815   1.000000
    4       -3.899786   1.000000
    5        0.978460   1.000000
    6        1.850754   1.000000
    7        1.965581   1.000000
    8        2.904659   1.000000
    9        2.922201   1.000000
   10        3.425905   1.000000
   11        5.145492   1.000000
   12        5.147737   1.000000
   13        6.828383   1.000000
   14        7.704058   0.000000
   15        7.840593   0.000000
   16        9.099973   0.000000

  0.3846154E+00  0.7692308E-01  0.1438808E-16  0.1092399E-01
    1      -25.399295   1.000000
    2      -25.392908   1.000000
    3      -25.392894   1.000000
    4       -3.633127   1.000000
    5        0.667341   1.000000
    6        1.828875   1.000000
    7        1.946445   1.000000
    8        2.913842   1.000000
    9        2.935497   1.000000
   10        3.052616   1.000000
   11        5.015712   1.000000
   12        5.058710   1.000000
   13        6.957557   1.000000
   14        7.959110   0.000000
   15        7.973471   0.000000
   16        8.601014   0.000000

  0.4615385E+00  0.7692308E-01  0.5672736E-16  0.1092399E-01
    1      -25.400404   1.000000
    2      -25.393004   1.000000
    3      -25.392851   1.000000
    4       -3.431216   1.000000
    5        0.433648   1.000000
    6        1.837913   1.000000
    7        1.919569   1.000000
    8        2.801790   1.000000
    9        2.934310   1.000000
   10        2.947754   1.000000
   11        4.933792   1.000000
   12        5.023522   1.000000
   13        7.098033   0.913842
   14        8.073042   0.000000
   15        8.095392   0.000000
   16        8.236077   0.000000

 -0.4615385E+00  0.7692308E-01 -0.1445300E-16  0.1092399E-01
    1      -25.400692   1.000000
    2      -25.393102   1.000000
    3      -25.392775   1.000000
    4       -3.372775   1.000000
    5        0.366866   1.000000
    6        1.868705   1.000000
    7        1.881245   1.000000
    8        2.751083   1.000000
    9        2.938673   1.000000
   10        2.939205   1.000000
   11        4.891835   1.000000
   12        5.035968   1.000000
   13        7.173257   0.000000
   14        7.922628   0.000000
   15        8.141272   0.000000
   16        8.296928   0.000000

 -0.3846154E+00  0.7692308E-01 -0.4452583E-17  0.1092399E-01
    1      -25.400098   1.000000
    2      -25.393166   1.000000
    3      -25.392691   1.000000
    4       -3.485719   1.000000
    5        0.499580   1.000000
    6        1.838984   1.000000
    7        1.910337   1.000000
    8        2.834488   1.000000
    9        2.950527   1.000000
   10        2.959901   1.000000
   11        4.879502   1.000000
   12        5.099987   1.000000
   13        7.078468   0.999982
   14        8.044685   0.000000
   15        8.090378   0.000000
   16        8.316123   0.000000

 -0.3076923E+00  0.7692308E-01 -0.5687776E-17  0.1092399E-01
    1      -25.398767   1.000000
    2      -25.393182   1.000000
    3      -25.392629   1.000000
    4       -3.718399   1.000000
    5        0.775520   1.000000
    6        1.808609   1.000000
    7        1.954054   1.000000
    8        2.901204   1.000000
    9        2.950248   1.000000
   10        3.162061   1.000000
   11        4.900195   1.000000
   12        5.225105   1.000000
   13        6.950356   1.000000
   14        7.864503   0.000000
   15        7.961663   0.000000
   16        8.791616   0.000000

 -0.2307692E+00  0.7692308E-01  0.4312644E-17  0.1092399E-01
    1      -25.396987   1.000000
    2      -25.393135   1.000000
    3      -25.392580   1.000000
    4       -3.989344   1.000000
    5        1.106747   1.000000
    6        1.804013   1.000000
    7        1.993470   1.000000
    8        2.886200   1.000000
    9        2.922879   1.000000
   10        3.591335   1.000000
   11        4.973813   1.000000
   12        5.407828   1.000000
   13        6.811702   1.000000
   14        7.678338   0.000000
   15        7.811605   0.000000
   16        8.988166   0.000000

 -0.1538462E+00  0.7692308E-01 -0.1505836E-17  0.1092399E-01
    1      -25.395187   1.000000
    2      -25.393038   1.000000
    3      -25.392580   1.000000
    4       -4.233384   1.000000
    5        1.427825   1.000000
    6        1.830471   1.000000
    7        2.017815   1.000000
    8        2.839055   1.000000
    9        2.869918   1.000000
   10        4.148509   1.000000
   11        5.131026   1.000000
   12        5.611853   1.000000
   13        6.593659   1.000000
   14        7.549411   0.000000
   15        7.782708   0.000000
   16        8.599052   0.000000

 -0.7692308E-01  0.7692308E-01 -0.7999173E-18  0.5461994E-02
    1      -25.393805   1.000000
    2      -25.392871   1.000000
    3      -25.392615   1.000000
    4       -4.409104   1.000000
    5        1.697035   1.000000
    6        1.882031   1.000000
    7        2.003422   1.000000
    8        2.790395   1.000000
    9        2.809131   1.000000
   10        4.687708   1.000000
   11        5.424738   1.000000
   12        5.760125   1.000000
   13        6.285474   1.000000
   14        7.549306   0.000000
   15        7.856652   0.000000
   16        8.243133   0.000000

  0.1538462E+00  0.1538462E+00  0.1055193E-16  0.2730997E-02
    1      -25.394465   1.000000
    2      -25.393008   1.000000
    3      -25.393008   1.000000
    4       -4.281323   1.000000
    5        1.340946   1.000000
    6        2.056606   1.000000
    7        2.056606   1.000000
    8        2.782031   1.000000
    9        2.846378   1.000000
   10        4.492369   1.000000
   11        5.290368   1.000000
   12        5.290368   1.000000
   13        6.451839   1.000000
   14        7.366804   0.000000
   15        7.939049   0.000000
   16        8.628052   0.000000

  0.2307692E+00  0.1538462E+00  0.1673420E-16  0.1092399E-01
    1      -25.395660   1.000000
    2      -25.393141   1.000000
    3      -25.393106   1.000000
    4       -4.117248   1.000000
    5        1.115477   1.000000
    6        2.054764   1.000000
    7        2.088204   1.000000
    8        2.792154   1.000000
    9        2.904977   1.000000
   10        4.106031   1.000000
   11        5.073834   1.000000
   12        5.109529   1.000000
   13        6.718495   1.000000
   14        7.310041   0.000000
   15        7.840452   0.000000
   16        8.893983   0.000000

  0.3076923E+00  0.1538462E+00 -0.2230739E-17  0.1092399E-01
    1      -25.397235   1.000000
    2      -25.393233   1.000000
    3      -25.393206   1.000000
    4       -3.891646   1.000000
    5        0.899985   1.000000
    6        1.981503   1.000000
    7        2.091485   1.000000
    8        2.837581   1.000000
    9        2.955577   1.000000
   10        3.605675   1.000000
   11        4.861708   1.000000
   12        4.976391   1.000000
   13        7.004926   1.000000
   14        7.467923   0.000000
   15        7.805848   0.000000
   16        9.007269   0.000000

  0.3846154E+00  0.1538462E+00  0.1041185E-16  0.1092399E-01
    1      -25.398741   1.000000
    2      -25.393466   1.000000
    3      -25.393209   1.000000
    4       -3.645403   1.000000
    5        0.704663   1.000000
    6        1.894363   1.000000
    7        2.071099   1.000000
    8        2.876101   1.000000
    9        2.976520   1.000000
   10        3.176899   1.000000
   11        4.698046   1.000000
   12        4.904708   1.000000
   13        7.048942   1.000000
   14        7.882918   0.000000
   15        7.937514   0.000000
   16        8.677534   0.000000

  0.4615385E+00  0.1538462E+00 -0.7343301E-17  0.1092399E-01
    1      -25.399808   1.000000
    2      -25.393745   1.000000
    3      -25.393117   1.000000
    4       -3.438373   1.000000
    5        0.550281   1.000000
    6        1.836283   1.000000
    7        2.024906   1.000000
    8        2.801550   1.000000
    9        2.979707   1.000000
   10        2.992765   1.000000
   11        4.585051   1.000000
   12        4.884986   1.000000
   13        7.112308   0.256540
   14        8.039514   0.000000
   15        8.195805   0.000000
   16        8.359002   0.000000

 -0.4615385E+00  0.1538462E+00 -0.2301251E-16  0.1092399E-01
    1      -25.400226   1.000000
    2      -25.394013   1.000000
    3      -25.392977   1.000000
    4       -3.339001   1.000000
    5        0.478697   1.000000
    6        1.833322   1.000000
    7        1.954540   1.000000
    8        2.698765   1.000000
    9        2.986410   1.000000
   10        2.993842   1.000000
   11        4.509361   1.000000
   12        4.907024   1.000000
   13        7.230527   0.000000
   14        7.890286   0.000000
   15        8.157300   0.000000
   16        8.602501   0.000000

 -0.3846154E+00  0.1538462E+00 -0.1301209E-16  0.1092399E-01
    1      -25.399904   1.000000
    2      -25.394171   1.000000
    3      -25.392811   1.000000
    4       -3.388142   1.000000
    5        0.525244   1.000000
    6        1.875122   1.000000
    7        1.891622   1.000000
    8        2.728064   1.000000
    9        2.997416   1.000000
   10        3.026694   1.000000
   11        4.450085   1.000000
   12        4.976017   1.000000
   13        7.275513   0.000000
   14        7.953917   0.000000
   15        8.117729   0.000000
   16        8.617336   0.000000

 -0.3076923E+00  0.1538462E+00  0.8925004E-17  0.1092399E-01
    1      -25.398952   1.000000
    2      -25.394171   1.000000
    3      -25.392662   1.000000
    4       -3.565075   1.000000
    5        0.679983   1.000000
    6        1.809065   1.000000
    7        1.986039   1.000000
    8        2.832005   1.000000
    9        2.996388   1.000000
   10        3.149201   1.000000
   11        4.405631   1.000000
   12        5.103300   1.000000
   13        7.257591   0.000000
   14        7.956509   0.000000
   15        8.189150   0.000000
   16        8.583658   0.000000

 -0.2307692E+00  0.1538462E+00 -0.4246865E-17  0.1092399E-01
    1      -25.397630   1.000000
    2      -25.393969   1.000000
    3      -25.392561   1.000000
    4       -3.805679   1.000000
    5        0.904007   1.000000
    6        1.774910   1.000000
    7        2.066320   1.000000
    8        2.873804   1.000000
    9        2.971090   1.000000
   10        3.469484   1.000000
   11        4.424482   1.000000
   12        5.284082   1.000000
   13        7.254092   0.000000
   14        7.760730   0.000000
   15        7.964179   0.000000
   16        8.727185   0.000000

 -0.1538462E+00  0.1538462E+00 -0.1006535E-16  0.5461994E-02
    1      -25.396271   1.000000
    2      -25.393552   1.000000
    3      -25.392531   1.000000
    4       -4.044359   1.000000
    5        1.163591   1.000000
    6        1.782232   1.000000
    7        2.085485   1.000000
    8        2.859523   1.000000
    9        2.924231   1.000000
   10        3.864328   1.000000
   11        4.633403   1.000000
   12        5.479281   1.000000
   13        7.052989   1.000000
   14        7.600013   0.000000
   15        7.797670   0.000000
   16        8.585501   0.000000

  0.2307692E+00  0.2307692E+00  0.1582789E-16  0.2730997E-02
    1      -25.396342   1.000000
    2      -25.393354   1.000000
    3      -25.393354   1.000000
    4       -3.996471   1.000000
    5        0.922615   1.000000
    6        2.169466   1.000000
    7        2.169466   1.000000
    8        2.720774   1.000000
    9        2.962253   1.000000
   10        4.000178   1.000000
   11        4.924225   1.000000
   12        4.924225   1.000000
   13        6.606934   1.000000
   14        7.313145   0.000000
   15        7.762884   0.000000
   16        8.987477   0.000000

  0.3076923E+00  0.2307692E+00  0.1776062E-16  0.1092399E-01
    1      -25.397505   1.000000
    2      -25.393560   1.000000
    3      -25.393491   1.000000
    4       -3.815649   1.000000
    5        0.767233   1.000000
    6        2.163835   1.000000
    7        2.212056   1.000000
    8        2.721839   1.000000
    9        3.020691   1.000000
   10        3.666640   1.000000
   11        4.698775   1.000000
   12        4.786264   1.000000
   13        6.802181   1.000000
   14        7.382936   0.000000
   15        7.692073   0.000000
   16        8.996456   0.000000

  0.3846154E+00  0.2307692E+00  0.2467410E-16  0.1092399E-01
    1      -25.398661   1.000000
    2      -25.393932   1.000000
    3      -25.393529   1.000000
    4       -3.608603   1.000000
    5        0.671155   1.000000
    6        2.056592   1.000000
    7        2.212227   1.000000
    8        2.791259   1.000000
    9        3.049907   1.000000
   10        3.264389   1.000000
   11        4.445869   1.000000
   12        4.717035   1.000000
   13        6.949654   1.000000
   14        7.728533   0.000000
   15        7.781096   0.000000
   16        8.734108   0.000000

  0.4615385E+00  0.2307692E+00  0.5542724E-16  0.1092399E-01
    1      -25.399443   1.000000
    2      -25.394465   1.000000
    3      -25.393453   1.000000
    4       -3.422410   1.000000
    5        0.637597   1.000000
    6        1.922992   1.000000
    7        2.166037   1.000000
    8        2.777987   1.000000
    9        3.018117   1.000000
   10        3.054278   1.000000
   11        4.249073   1.000000
   12        4.705315   1.000000
   13        6.999974   1.000000
   14        7.900620   0.000000
   15        8.285394   0.000000
   16        8.381139   0.000000

 -0.4615385E+00  0.2307692E+00 -0.1575312E-16  0.1092399E-01
    1      -25.399689   1.000000
    2      -25.395030   1.000000
    3      -25.393287   1.000000
    4       -3.308915   1.000000
    5        0.645803   1.000000
    6        1.820488   1.000000
    7        2.077134   1.000000
    8        2.624272   1.000000
    9        3.054759   1.000000
   10        3.056544   1.000000
   11        4.116615   1.000000
   12        4.733670   1.000000
   13        7.106829   0.548084
   14        7.967711   0.000000
   15        8.130606   0.000000
   16        8.712230   0.000000

 -0.3846154E+00  0.2307692E+00 -0.5752701E-17  0.1092399E-01
    1      -25.399403   1.000000
    2      -25.395443   1.000000
    3      -25.393064   1.000000
    4       -3.305259   1.000000
    5        0.659976   1.000000
    6        1.815885   1.000000
    7        1.967127   1.000000
    8        2.602727   1.000000
    9        3.059531   1.000000
   10        3.125984   1.000000
   11        4.031079   1.000000
   12        4.804712   1.000000
   13        7.272000   0.000000
   14        7.827504   0.000000
   15        8.202479   0.000000
   16        8.731814   0.000000

 -0.3076923E+00  0.2307692E+00 -0.1157118E-16  0.1092399E-01
    1      -25.398811   1.000000
    2      -25.395446   1.000000
    3      -25.392838   1.000000
    4       -3.413183   1.000000
    5        0.682627   1.000000
    6        1.865690   1.000000
    7        1.915174   1.000000
    8        2.705297   1.000000
    9        3.049194   1.000000
   10        3.215256   1.000000
   11        3.989464   1.000000
   12        4.929777   1.000000
   13        7.362698   0.000000
   14        8.047662   0.000000
   15        8.088753   0.000000
   16        8.656073   0.000000

 -0.2307692E+00  0.2307692E+00  0.7595811E-17  0.5461994E-02
    1      -25.398206   1.000000
    2      -25.394886   1.000000
    3      -25.392658   1.000000
    4       -3.597461   1.000000
    5        0.756648   1.000000
    6        1.796902   1.000000
    7        2.028960   1.000000
    8        2.824292   1.000000
    9        3.017696   1.000000
   10        3.345056   1.000000
   11        4.073365   1.000000
   12        5.102424   1.000000
   13        7.386545   0.000000
   14        7.917245   0.000000
   15        8.307882   0.000000
   16        8.612278   0.000000

  0.3076923E+00  0.3076923E+00  0.2110385E-16  0.2730997E-02
    1      -25.398370   1.000000
    2      -25.393715   1.000000
    3      -25.393715   1.000000
    4       -3.686734   1.000000
    5        0.664685   1.000000
    6        2.299742   1.000000
    7        2.299742   1.000000
    8        2.607606   1.000000
    9        3.095067   1.000000
   10        3.489082   1.000000
   11        4.630586   1.000000
   12        4.630586   1.000000
   13        6.641769   1.000000
   14        7.391339   0.000000
   15        7.565391   0.000000
   16        8.954200   0.000000

  0.3846154E+00  0.3076923E+00  0.1732438E-16  0.1092399E-01
    1      -25.399268   1.000000
    2      -25.394002   1.000000
    3      -25.393818   1.000000
    4       -3.531882   1.000000
    5        0.633150   1.000000
    6        2.248188   1.000000
    7        2.337329   1.000000
    8        2.649581   1.000000
    9        3.141208   1.000000
   10        3.180848   1.000000
   11        4.416547   1.000000
   12        4.545057   1.000000
   13        6.735671   1.000000
   14        7.530504   0.000000
   15        7.569012   0.000000
   16        8.751982   0.000000

  0.4615385E+00  0.3076923E+00  0.3298994E-16  0.1092399E-01
    1      -25.399792   1.000000
    2      -25.394590   1.000000
    3      -25.393795   1.000000
    4       -3.386284   1.000000
    5        0.683762   1.000000
    6        2.086194   1.000000
    7        2.313253   1.000000
    8        2.705027   1.000000
    9        2.939817   1.000000
   10        3.148362   1.000000
   11        4.126431   1.000000
   12        4.529150   1.000000
   13        6.823610   1.000000
   14        7.659845   0.000000
   15        8.069229   0.000000
   16        8.436475   0.000000

 -0.4615385E+00  0.3076923E+00  0.2203195E-16  0.1092399E-01
    1      -25.399733   1.000000
    2      -25.395412   1.000000
    3      -25.393640   1.000000
    4       -3.285154   1.000000
    5        0.786674   1.000000
    6        1.902030   1.000000
    7        2.226427   1.000000
    8        2.518201   1.000000
    9        3.047093   1.000000
   10        3.139418   1.000000
   11        3.885932   1.000000
   12        4.560651   1.000000
   13        6.914762   1.000000
   14        7.961669   0.000000
   15        8.080814   0.000000
   16        8.637646   0.000000

 -0.3846154E+00  0.3076923E+00 -0.1431221E-16  0.1092399E-01
    1      -25.399165   1.000000
    2      -25.396229   1.000000
    3      -25.393384   1.000000
    4       -3.253657   1.000000
    5        0.843085   1.000000
    6        1.766061   1.000000
    7        2.099655   1.000000
    8        2.462125   1.000000
    9        3.124482   1.000000
   10        3.196314   1.000000
   11        3.739117   1.000000
   12        4.635342   1.000000
   13        7.081488   0.999894
   14        7.863755   0.000000
   15        8.265350   0.000000
   16        8.598070   0.000000

 -0.3076923E+00  0.3076923E+00 -0.2013069E-16  0.5461994E-02
    1      -25.398665   1.000000
    2      -25.396407   1.000000
    3      -25.393098   1.000000
    4       -3.299983   1.000000
    5        0.771988   1.000000
    6        1.798724   1.000000
    7        1.969124   1.000000
    8        2.555000   1.000000
    9        3.095135   1.000000
   10        3.266230   1.000000
   11        3.749941   1.000000
   12        4.761413   1.000000
   13        7.288769   0.000000
   14        7.818743   0.000000
   15        8.223557   0.000000
   16        8.557274   0.000000

  0.3846154E+00  0.3846154E+00  0.2637981E-16  0.2730997E-02
    1      -25.400080   1.000000
    2      -25.394015   1.000000
    3      -25.394015   1.000000
    4       -3.434578   1.000000
    5        0.645940   1.000000
    6        2.417309   1.000000
    7        2.417309   1.000000
    8        2.488242   1.000000
    9        2.944447   1.000000
   10        3.214498   1.000000
   11        4.431609   1.000000
   12        4.431609   1.000000
   13        6.624473   1.000000
   14        7.391847   0.000000
   15        7.448133   0.000000
   16        8.711172   0.000000

  0.4615385E+00  0.3846154E+00  0.3337441E-16  0.1092399E-01
    1      -25.400538   1.000000
    2      -25.394315   1.000000
    3      -25.394057   1.000000
    4       -3.340868   1.000000
    5        0.727088   1.000000
    6        2.271860   1.000000
    7        2.431111   1.000000
    8        2.572556   1.000000
    9        2.736914   1.000000
   10        3.237742   1.000000
   11        4.246185   1.000000
   12        4.395791   1.000000
   13        6.669626   1.000000
   14        7.411440   0.000000
   15        7.638468   0.000000
   16        8.515521   0.000000

 -0.4615385E+00  0.3846154E+00  0.1095819E-16  0.1092399E-01
    1      -25.400416   1.000000
    2      -25.394979   1.000000
    3      -25.393945   1.000000
    4       -3.272286   1.000000
    5        0.849031   1.000000
    6        2.084074   1.000000
    7        2.368943   1.000000
    8        2.398161   1.000000
    9        2.894507   1.000000
   10        3.219480   1.000000
   11        3.956149   1.000000
   12        4.423828   1.000000
   13        6.749429   1.000000
   14        7.635095   0.000000
   15        8.074871   0.000000
   16        8.380423   0.000000

 -0.3846154E+00  0.3846154E+00 -0.7052820E-17  0.5461994E-02
    1      -25.399774   1.000000
    2      -25.395819   1.000000
    3      -25.393702   1.000000
    4       -3.241854   1.000000
    5        0.924948   1.000000
    6        1.863716   1.000000
    7        2.246072   1.000000
    8        2.360809   1.000000
    9        3.099332   1.000000
   10        3.179903   1.000000
   11        3.733404   1.000000
   12        4.503767   1.000000
   13        6.881481   1.000000
   14        8.004074   0.000000
   15        8.030574   0.000000
   16        8.447327   0.000000

  0.4615385E+00  0.4615385E+00  0.3165578E-16  0.2730997E-02
    1      -25.401052   1.000000
    2      -25.394181   1.000000
    3      -25.394181   1.000000
    4       -3.300449   1.000000
    5        0.787121   1.000000
    6        2.382141   1.000000
    7        2.488081   1.000000
    8        2.488081   1.000000
    9        2.534013   1.000000
   10        3.286421   1.000000
   11        4.332499   1.000000
   12        4.332499   1.000000
   13        6.605568   1.000000
   14        7.289170   0.000000
   15        7.421345   0.000000
   16        8.527410   0.000000

 -0.4615385E+00  0.4615385E+00  0.2073183E-16  0.5461994E-02
    1      -25.401005   1.000000
    2      -25.394436   1.000000
    3      -25.394147   1.000000
    4       -3.276311   1.000000
    5        0.840583   1.000000
    6        2.299032   1.000000
    7        2.339403   1.000000
    8        2.465835   1.000000
    9        2.688002   1.000000
   10        3.276083   1.000000
   11        4.189821   1.000000
   12        4.344467   1.000000
   13        6.644553   1.000000
   14        7.368417   0.000000
   15        7.626307   0.000000
   16        8.440165   0.000000

  0.2307692E+00  0.1538462E+00  0.7692308E-01  0.1092399E-01
    1      -25.395092   1.000000
    2      -25.393159   1.000000
    3      -25.392735   1.000000
    4       -4.218984   1.000000
    5        1.322293   1.000000
    6        1.923243   1.000000
    7        2.065025   1.000000
    8        2.821706   1.000000
    9        2.868503   1.000000
   10        4.238739   1.000000
   11        5.030646   1.000000
   12        5.470854   1.000000
   13        6.693405   1.000000
   14        7.390865   0.000000
   15        7.860139   0.000000
   16        8.584572   0.000000

  0.3076923E+00  0.1538462E+00  0.7692308E-01  0.2184797E-01
    1      -25.396567   1.000000
    2      -25.393428   1.000000
    3      -25.392718   1.000000
    4       -4.004544   1.000000
    5        1.070165   1.000000
    6        1.869068   1.000000
    7        2.078264   1.000000
    8        2.858341   1.000000