 ----------------------------------------------------
    OOO  PPPP  EEEEE N   N M   M PPPP
   O   O P   P E     NN  N MM MM P   P
   O   O PPPP  EEEEE N N N M M M PPPP   -- VERSION
   O   O P     E     N  NN M   M P
    OOO  P     EEEEE N   N M   M P
 ----------------------------------------------------
 running   64 mpi-ranks, with    1 threads/rank
 distrk:  each k-point on   16 cores,    4 groups
 distr:  one band on    4 cores,    4 groups
 using from now: INCAR
 vasp.6.0.8 29Jun18 (build Jun 13 2019 12:54:44) complex

 POSCAR found type information on POSCAR  Hf Sb Pt
 POSCAR found :  3 types and       3 ions
 scaLAPACK will be used

 -----------------------------------------------------------------------------
|                                                                             |
|  ADVICE TO THIS USER RUNNING 'VASP/VAMP'   (HEAR YOUR MASTER'S VOICE ...):  |
|                                                                             |
|      You enforced a specific xc-type in the INCAR file,                     |
|      a different type was found on the POTCAR file                          |
|          I HOPE YOU KNOW, WHAT YOU ARE  DOING                               |
|                                                                             |
 -----------------------------------------------------------------------------

 LDA part: xc-table for Pade appr. of Perdew
 POSCAR, INCAR and KPOINTS ok, starting setup
 FFT: planning ...
 WAVECAR not read
 entering main loop
       N       E                     dE             d eps       ncg     rms          rms(c)
 ELPA: falling back to scaLAPACK
 ELPA: falling back to scaLAPACK
 ELPA: falling back to scaLAPACK
 ELPA: falling back to scaLAPACK
DAV:   1     0.133369577987E+03    0.13337E+03   -0.14030E+04  2688   0.171E+03
DAV:   2    -0.196063965887E+02   -0.15298E+03   -0.15126E+03  3384   0.325E+02
DAV:   3    -0.246769386832E+02   -0.50705E+01   -0.50184E+01  3600   0.517E+01
DAV:   4    -0.247512346393E+02   -0.74296E-01   -0.74246E-01  3392   0.692E+00
DAV:   5    -0.247530990851E+02   -0.18644E-02   -0.18641E-02  3640   0.100E+00    0.333E+01
DAV:   6    -0.237099324048E+02    0.10432E+01   -0.26349E+00  3568   0.920E+00    0.217E+01
DAV:   7    -0.235542234074E+02    0.15571E+00   -0.11803E+00  3664   0.713E+00    0.308E+00
DAV:   8    -0.235270694122E+02    0.27154E-01   -0.24050E-01  3312   0.305E+00    0.106E+00
DAV:   9    -0.235264175615E+02    0.65185E-03   -0.13157E-02  3376   0.924E-01    0.228E-01
DAV:  10    -0.235261879191E+02    0.22964E-03   -0.35619E-03  3584   0.257E-01    0.101E-01
DAV:  11    -0.235260942954E+02    0.93624E-04   -0.65046E-04  3624   0.128E-01    0.346E-02
DAV:  12    -0.235260959306E+02   -0.16352E-05   -0.17787E-05  3216   0.312E-02    0.152E-02
DAV:  13    -0.235260958559E+02    0.74674E-07   -0.20127E-06  3616   0.104E-02    0.114E-02
DAV:  14    -0.235260959817E+02   -0.12574E-06   -0.55614E-07  3480   0.385E-03    0.143E-03
DAV:  15    -0.235260959452E+02    0.36482E-07   -0.35353E-08  2072   0.112E-03
   1 F= -.23526096E+02 E0= -.23525951E+02  d E =-.290336E-03
