<?xml version="1.0" encoding="ISO-8859-1"?>
<modeling>
 <generator>
  <i name="program" type="string">vasp </i>
  <i name="version" type="string">6.0.8  </i>
  <i name="subversion" type="string">29Jun18 (build Jun 13 2019 12:54:44) complex                          parallel </i>
  <i name="platform" type="string">IFC18_CrayMPICH </i>
  <i name="date" type="string">2021 12 05 </i>
  <i name="time" type="string">14:21:50 </i>
 </generator>
 <incar>
  <i type="int" name="KPAR">     4</i>
  <i type="int" name="NPAR">     4</i>
  <i type="int" name="ISTART">     0</i>
  <i type="string" name="PREC"> ACC</i>
  <i type="string" name="ALGO"> Normal</i>
  <i type="logical" name="ADDGRID"> T  </i>
  <i type="int" name="ISPIN">     1</i>
  <i type="int" name="NELMIN">     5</i>
  <i type="int" name="IBRION">    -1</i>
  <i name="EDIFF">      0.00000010</i>
  <i type="int" name="NSW">     0</i>
  <i type="int" name="ISIF">     3</i>
  <i name="ENCUT">    700.00000000</i>
  <i type="logical" name="LREAL"> F  </i>
  <i type="int" name="ISMEAR">     0</i>
  <i name="SIGMA">      0.01000000</i>
  <i type="logical" name="LWAVE"> F  </i>
  <i type="logical" name="LCHARG"> F  </i>
  <i type="logical" name="LVTOT"> F  </i>
  <i type="string" name="ALGO"> Normal</i>
  <i type="string" name="GGA"> PS</i>
  <i name="EDIFF">      0.00000010</i>
  <i type="int" name="ISPIN">     1</i>
 </incar>
 <structure name="primitive_cell" >
  <crystal>
   <varray name="basis" >
    <v>       0.00000000       3.33947886       3.33947886 </v>
    <v>       3.33947886       0.00000000       3.33947886 </v>
    <v>       3.33947886       3.33947886       0.00000000 </v>
   </varray>
   <i name="volume">     74.48453137 </i>
   <varray name="rec_basis" >
    <v>      -0.14972396       0.14972396       0.14972396 </v>
    <v>       0.14972396      -0.14972396       0.14972396 </v>
    <v>       0.14972396       0.14972396      -0.14972396 </v>
   </varray>
  </crystal>
  <varray name="positions" >
   <v>       0.75000000       0.75000000       0.75000000 </v>
   <v>       0.25000000       0.25000000       0.25000000 </v>
   <v>       0.00000000       0.00000000       0.00000000 </v>
  </varray>
 </structure>
 <varray name="primitive_index" >
  <v type="int" >        1 </v>
  <v type="int" >        2 </v>
  <v type="int" >        3 </v>
 </varray>
 <kpoints>
  <generation param="Gamma">
   <v type="int" name="divisions">      13       13       13 </v>
   <v name="usershift">      0.00000000       0.00000000       0.00000000 </v>
   <v name="genvec1">      0.07692308      -0.00000000       0.00000000 </v>
   <v name="genvec2">     -0.00000000       0.07692308      -0.00000000 </v>
   <v name="genvec3">      0.00000000       0.00000000       0.07692308 </v>
   <v name="shift">      0.00000000       0.00000000       0.00000000 </v>
  </generation>
  <varray name="kpointlist" >
   <v>       0.00000000       0.00000000       0.00000000 </v>
   <v>       0.07692308      -0.00000000       0.00000000 </v>
   <v>       0.15384615       0.00000000       0.00000000 </v>
   <v>       0.23076923       0.00000000      -0.00000000 </v>
   <v>       0.30769231       0.00000000       0.00000000 </v>
   <v>       0.38461538       0.00000000       0.00000000 </v>
   <v>       0.46153846       0.00000000      -0.00000000 </v>
   <v>       0.07692308       0.07692308       0.00000000 </v>
   <v>       0.15384615       0.07692308      -0.00000000 </v>
   <v>       0.23076923       0.07692308       0.00000000 </v>
   <v>       0.30769231       0.07692308       0.00000000 </v>
   <v>       0.38461538       0.07692308       0.00000000 </v>
   <v>       0.46153846       0.07692308       0.00000000 </v>
   <v>      -0.46153846       0.07692308      -0.00000000 </v>
   <v>      -0.38461538       0.07692308      -0.00000000 </v>
   <v>      -0.30769231       0.07692308      -0.00000000 </v>
   <v>      -0.23076923       0.07692308       0.00000000 </v>
   <v>      -0.15384615       0.07692308      -0.00000000 </v>
   <v>      -0.07692308       0.07692308      -0.00000000 </v>
   <v>       0.15384615       0.15384615       0.00000000 </v>
   <v>       0.23076923       0.15384615       0.00000000 </v>
   <v>       0.30769231       0.15384615      -0.00000000 </v>
   <v>       0.38461538       0.15384615       0.00000000 </v>
   <v>       0.46153846       0.15384615      -0.00000000 </v>
   <v>      -0.46153846       0.15384615      -0.00000000 </v>
   <v>      -0.38461538       0.15384615      -0.00000000 </v>
   <v>      -0.30769231       0.15384615       0.00000000 </v>
   <v>      -0.23076923       0.15384615      -0.00000000 </v>
   <v>      -0.15384615       0.15384615      -0.00000000 </v>
   <v>       0.23076923       0.23076923       0.00000000 </v>
   <v>       0.30769231       0.23076923       0.00000000 </v>
   <v>       0.38461538       0.23076923       0.00000000 </v>
   <v>       0.46153846       0.23076923       0.00000000 </v>
   <v>      -0.46153846       0.23076923      -0.00000000 </v>
   <v>      -0.38461538       0.23076923      -0.00000000 </v>
   <v>      -0.30769231       0.23076923      -0.00000000 </v>
   <v>      -0.23076923       0.23076923       0.00000000 </v>
   <v>       0.30769231       0.30769231       0.00000000 </v>
   <v>       0.38461538       0.30769231       0.00000000 </v>
   <v>       0.46153846       0.30769231       0.00000000 </v>
   <v>      -0.46153846       0.30769231       0.00000000 </v>
   <v>      -0.38461538       0.30769231      -0.00000000 </v>
   <v>      -0.30769231       0.30769231      -0.00000000 </v>
   <v>       0.38461538       0.38461538       0.00000000 </v>
   <v>       0.46153846       0.38461538       0.00000000 </v>
   <v>      -0.46153846       0.38461538       0.00000000 </v>
   <v>      -0.38461538       0.38461538      -0.00000000 </v>
   <v>       0.46153846       0.46153846       0.00000000 </v>
   <v>      -0.46153846       0.46153846       0.00000000 </v>
   <v>       0.23076923       0.15384615       0.07692308 </v>
   <v>       0.30769231       0.15384615       0.07692308 </v>
   <v>       0.38461538       0.15384615       0.07692308 </v>
   <v>       0.46153846       0.15384615       0.07692308 </v>
   <v>      -0.46153846       0.15384615       0.07692308 </v>
   <v>       0.30769231       0.23076923       0.07692308 </v>
   <v>       0.38461538       0.23076923       0.07692308 </v>
   <v>       0.46153846       0.23076923       0.07692308 </v>
   <v>      -0.46153846       0.23076923       0.07692308 </v>
   <v>      -0.38461538       0.23076923       0.07692308 </v>
   <v>      -0.30769231       0.23076923       0.07692308 </v>
   <v>      -0.23076923       0.23076923       0.07692308 </v>
   <v>      -0.15384615       0.23076923       0.07692308 </v>
   <v>       0.38461538       0.30769231       0.07692308 </v>
   <v>       0.46153846       0.30769231       0.07692308 </v>
   <v>      -0.46153846       0.30769231       0.07692308 </v>
   <v>      -0.38461538       0.30769231       0.07692308 </v>
   <v>      -0.30769231       0.30769231       0.07692308 </v>
   <v>      -0.23076923       0.30769231       0.07692308 </v>
   <v>       0.46153846       0.38461538       0.07692308 </v>
   <v>      -0.46153846       0.38461538       0.07692308 </v>
   <v>      -0.38461538       0.38461538       0.07692308 </v>
   <v>      -0.30769231       0.38461538       0.07692308 </v>
   <v>      -0.46153846       0.46153846       0.07692308 </v>
   <v>      -0.38461538       0.46153846       0.07692308 </v>
   <v>       0.46153846       0.30769231       0.15384615 </v>
   <v>      -0.46153846       0.30769231       0.15384615 </v>
   <v>      -0.38461538       0.30769231       0.15384615 </v>
   <v>      -0.46153846       0.38461538       0.15384615 </v>
   <v>      -0.38461538       0.38461538       0.15384615 </v>
   <v>      -0.30769231       0.38461538       0.15384615 </v>
   <v>      -0.23076923       0.38461538       0.15384615 </v>
   <v>      -0.38461538       0.46153846       0.15384615 </v>
   <v>      -0.30769231       0.46153846       0.15384615 </v>
   <v>      -0.30769231       0.46153846       0.23076923 </v>
  </varray>
  <varray name="weights" >
   <v>       0.00045517 </v>
   <v>       0.00364133 </v>
   <v>       0.00364133 </v>
   <v>       0.00364133 </v>
   <v>       0.00364133 </v>
   <v>       0.00364133 </v>
   <v>       0.00364133 </v>
   <v>       0.00273100 </v>
   <v>       0.01092399 </v>
   <v>       0.01092399 </v>
   <v>       0.01092399 </v>
   <v>       0.01092399 </v>
   <v>       0.01092399 </v>
   <v>       0.01092399 </v>
   <v>       0.01092399 </v>
   <v>       0.01092399 </v>
   <v>       0.01092399 </v>
   <v>       0.01092399 </v>
   <v>       0.00546199 </v>
   <v>       0.00273100 </v>
   <v>       0.01092399 </v>
   <v>       0.01092399 </v>
   <v>       0.01092399 </v>
   <v>       0.01092399 </v>
   <v>       0.01092399 </v>
   <v>       0.01092399 </v>
   <v>       0.01092399 </v>
   <v>       0.01092399 </v>
   <v>       0.00546199 </v>
   <v>       0.00273100 </v>
   <v>       0.01092399 </v>
   <v>       0.01092399 </v>
   <v>       0.01092399 </v>
   <v>       0.01092399 </v>
   <v>       0.01092399 </v>
   <v>       0.01092399 </v>
   <v>       0.00546199 </v>
   <v>       0.00273100 </v>
   <v>       0.01092399 </v>
   <v>       0.01092399 </v>
   <v>       0.01092399 </v>
   <v>       0.01092399 </v>
   <v>       0.00546199 </v>
   <v>       0.00273100 </v>
   <v>       0.01092399 </v>
   <v>       0.01092399 </v>
   <v>       0.00546199 </v>
   <v>       0.00273100 </v>
   <v>       0.00546199 </v>
   <v>       0.01092399 </v>
   <v>       0.02184797 </v>
   <v>       0.02184797 </v>
   <v>       0.02184797 </v>
   <v>       0.02184797 </v>
   <v>       0.01092399 </v>
   <v>       0.02184797 </v>
   <v>       0.02184797 </v>
   <v>       0.02184797 </v>
   <v>       0.02184797 </v>
   <v>       0.02184797 </v>
   <v>       0.02184797 </v>
   <v>       0.01092399 </v>
   <v>       0.01092399 </v>
   <v>       0.02184797 </v>
   <v>       0.02184797 </v>
   <v>       0.02184797 </v>
   <v>       0.02184797 </v>
   <v>       0.01092399 </v>
   <v>       0.01092399 </v>
   <v>       0.02184797 </v>
   <v>       0.02184797 </v>
   <v>       0.01092399 </v>
   <v>       0.01092399 </v>
   <v>       0.01092399 </v>
   <v>       0.01092399 </v>
   <v>       0.02184797 </v>
   <v>       0.02184797 </v>
   <v>       0.01092399 </v>
   <v>       0.02184797 </v>
   <v>       0.02184797 </v>
   <v>       0.01092399 </v>
   <v>       0.01092399 </v>
   <v>       0.01092399 </v>
   <v>       0.01092399 </v>
  </varray>
 </kpoints>
 <parameters>
  <separator name="general" >
   <i type="string" name="SYSTEM">unknown system</i>
   <i type="logical" name="LCOMPAT"> F  </i>
  </separator>
  <separator name="electronic" >
   <i type="string" name="PREC">acc</i>
   <i name="ENMAX">    700.00000000</i>
   <i name="ENAUG">    380.87800000</i>
   <i name="EDIFF">      0.00000010</i>
   <i type="int" name="IALGO">    38</i>
   <i type="int" name="IWAVPR">    10</i>
   <i type="int" name="NBANDS">    16</i>
   <i type="int" name="NBANDSLOW">    -1</i>
   <i type="int" name="NBANDSHIGH">    -1</i>
   <i name="NELECT">     25.00000000</i>
   <i type="int" name="TURBO">     0</i>
   <i type="int" name="IRESTART">     0</i>
   <i type="int" name="NREBOOT">     0</i>
   <i type="int" name="NMIN">     0</i>
   <i name="EREF">      0.00000000</i>
   <separator name="electronic smearing" >
    <i type="int" name="ISMEAR">     0</i>
    <i name="SIGMA">      0.01000000</i>
    <i name="KSPACING">      0.50000000</i>
    <i type="logical" name="KGAMMA"> T  </i>
    <i type="logical" name="KBLOWUP"> T  </i>
   </separator>
   <separator name="electronic projectors" >
    <i type="logical" name="LREAL"> F  </i>
    <v name="ROPT">      0.00000000      0.00000000      0.00000000</v>
    <i type="int" name="LMAXPAW">  -100</i>
    <i type="int" name="LMAXMIX">     2</i>
    <i type="logical" name="NLSPLINE"> F  </i>
   </separator>
   <separator name="electronic startup" >
    <i type="int" name="ISTART">     0</i>
    <i type="int" name="ICHARG">     2</i>
    <i type="int" name="INIWAV">     1</i>
   </separator>
   <separator name="electronic spin" >
    <i type="int" name="ISPIN">     1</i>
    <i type="logical" name="LNONCOLLINEAR"> F  </i>
    <v name="MAGMOM">      1.00000000      1.00000000      1.00000000</v>
    <i name="NUPDOWN">     -1.00000000</i>
    <i type="logical" name="LSORBIT"> F  </i>
    <v name="SAXIS">      0.00000000      0.00000000      1.00000000</v>
    <i type="logical" name="LSPIRAL"> F  </i>
    <v name="QSPIRAL">      0.00000000      0.00000000      0.00000000</v>
    <i type="logical" name="LZEROZ"> F  </i>
   </separator>
   <separator name="electronic exchange-correlation" >
    <i type="logical" name="LASPH"> F  </i>
    <i type="logical" name="LMETAGGA"> F  </i>
   </separator>
   <separator name="electronic convergence" >
    <i type="int" name="NELM">    60</i>
    <i type="int" name="NELMDL">    -5</i>
    <i type="int" name="NELMIN">     5</i>
    <i name="ENINI">    700.00000000</i>
    <separator name="electronic convergence detail" >
     <i type="logical" name="LDIAG"> T  </i>
     <i type="logical" name="LSUBROT"> F  </i>
     <i name="WEIMIN">      0.00000000</i>
     <i name="EBREAK">      0.00000000</i>
     <i name="DEPER">      0.30000000</i>
     <i type="int" name="NRMM">     4</i>
     <i name="TIME">      0.40000000</i>
    </separator>
   </separator>
   <separator name="electronic mixer" >
    <i name="AMIX">      0.40000000</i>
    <i name="BMIX">      1.00000000</i>
    <i name="AMIN">      0.10000000</i>
    <i name="AMIX_MAG">      1.60000000</i>
    <i name="BMIX_MAG">      1.00000000</i>
    <separator name="electronic mixer details" >
     <i type="int" name="IMIX">     4</i>
     <i type="logical" name="MIXFIRST"> F  </i>
     <i type="int" name="MAXMIX">   -45</i>
     <i name="WC">    100.00000000</i>
     <i type="int" name="INIMIX">     1</i>
     <i type="int" name="MIXPRE">     1</i>
     <i type="int" name="MREMOVE">     5</i>
    </separator>
   </separator>
   <separator name="electronic dipolcorrection" >
    <i type="logical" name="LDIPOL"> F  </i>
    <i type="logical" name="LMONO"> F  </i>
    <i type="int" name="IDIPOL">     0</i>
    <i name="EPSILON">      1.00000000</i>
    <v name="DIPOL">   -100.00000000   -100.00000000   -100.00000000</v>
    <i name="EFIELD">      0.00000000</i>
   </separator>
  </separator>
  <separator name="grids" >
   <i type="int" name="NGX">    42</i>
   <i type="int" name="NGY">    42</i>
   <i type="int" name="NGZ">    42</i>
   <i type="int" name="NGXF">    84</i>
   <i type="int" name="NGYF">    84</i>
   <i type="int" name="NGZF">    84</i>
   <i type="logical" name="ADDGRID"> T  </i>
  </separator>
  <separator name="ionic" >
   <i type="int" name="NSW">     0</i>
   <i type="int" name="IBRION">    -1</i>
   <i type="int" name="MDALGO">     0</i>
   <i type="int" name="ISIF">     3</i>
   <i name="PSTRESS">      0.00000000</i>
   <i name="EDIFFG">      0.00000100</i>
   <i type="int" name="NFREE">     0</i>
   <i name="POTIM">      0.50000000</i>
   <i name="SMASS">     -3.00000000</i>
   <i name="SCALEE">      1.00000000</i>
  </separator>
  <separator name="ionic md" >
   <i name="TEBEG">      0.00010000</i>
   <i name="TEEND">      0.00010000</i>
   <i type="int" name="NBLOCK">     1</i>
   <i type="int" name="KBLOCK">     1</i>
   <i type="int" name="NPACO">   256</i>
   <i name="APACO">     16.00000000</i>
  </separator>
  <separator name="symmetry" >
   <i type="int" name="ISYM">     2</i>
   <i name="SYMPREC">      0.00001000</i>
  </separator>
  <separator name="dos" >
   <i type="int" name="LORBIT">     0</i>
   <v name="RWIGS">     -1.00000000     -1.00000000     -1.00000000</v>
   <i type="int" name="NEDOS">   301</i>
   <i name="EMIN">     10.00000000</i>
   <i name="EMAX">    -10.00000000</i>
   <i name="EFERMI">      0.00000000</i>
  </separator>
  <separator name="writing" >
   <i type="int" name="NWRITE">     2</i>
   <i type="logical" name="LWAVE"> F  </i>
   <i type="logical" name="LDOWNSAMPLE"> F  </i>
   <i type="logical" name="LCHARG"> F  </i>
   <i type="logical" name="LPARD"> F  </i>
   <i type="logical" name="LVTOT"> F  </i>
   <i type="logical" name="LVHAR"> F  </i>
   <i type="logical" name="LELF"> F  </i>
   <i type="logical" name="LOPTICS"> F  </i>
   <v name="STM">      0.00000000      0.00000000      0.00000000      0.00000000      0.00000000      0.00000000      0.00000000</v>
  </separator>
  <separator name="performance" >
   <i type="int" name="NPAR">     4</i>
   <i type="int" name="NSIM">     4</i>
   <i type="int" name="NBLK">    -1</i>
   <i type="logical" name="LPLANE"> T  </i>
   <i type="logical" name="LSCALAPACK"> T  </i>
   <i type="logical" name="LSCAAWARE"> F  </i>
   <i type="logical" name="LSCALU"> F  </i>
   <i type="logical" name="LASYNC"> F  </i>
   <i type="logical" name="LORBITALREAL"> F  </i>
  </separator>
  <separator name="miscellaneous" >
   <i type="int" name="IDIOT">     3</i>
   <i type="int" name="PHON_NSTRUCT">    -1</i>
   <i type="logical" name="LMUSIC"> F  </i>
   <v name="POMASS">    178.49000000    121.75000000    195.08000000</v>
   <v name="DARWINR">      0.00000000      0.00000000      0.00000000</v>
   <v name="DARWINV">      1.00000000      1.00000000      1.00000000</v>
   <i type="logical" name="LCORR"> T  </i>
  </separator>
  <i type="logical" name="GGA_COMPAT"> T  </i>
  <i type="logical" name="LBERRY"> F  </i>
  <i type="int" name="ICORELEVEL">     0</i>
  <i type="logical" name="LDAU"> F  </i>
  <i type="int" name="I_CONSTRAINED_M">     0</i>
  <separator name="electronic exchange-correlation" >
   <i type="string" name="GGA">PS</i>
   <i type="int" name="VOSKOWN">     0</i>
   <i type="logical" name="LHFCALC"> F  </i>
   <i type="string" name="PRECFOCK"></i>
   <i type="logical" name="LSYMGRAD"> F  </i>
   <i type="logical" name="LHFONE"> F  </i>
   <i type="logical" name="LRHFCALC"> F  </i>
   <i type="logical" name="LTHOMAS"> F  </i>
   <i type="logical" name="LMODELHF"> F  </i>
   <i type="logical" name="LFOCKACE"> F  </i>
   <i name="ENCUT4O">     -1.00000000</i>
   <i type="int" name="EXXOEP">     0</i>
   <i type="int" name="FOURORBIT">     0</i>
   <i name="AEXX">      0.00000000</i>
   <i name="HFALPHA">      0.00000000</i>
   <i name="MCALPHA">      0.00000000</i>
   <i name="ALDAX">      1.00000000</i>
   <i name="AGGAX">      1.00000000</i>
   <i name="ALDAC">      1.00000000</i>
   <i name="AGGAC">      1.00000000</i>
   <i type="int" name="NKREDX">     1</i>
   <i type="int" name="NKREDY">     1</i>
   <i type="int" name="NKREDZ">     1</i>
   <i type="logical" name="SHIFTRED"> F  </i>
   <i type="logical" name="ODDONLY"> F  </i>
   <i type="logical" name="EVENONLY"> F  </i>
   <i type="int" name="LMAXFOCK">     0</i>
   <i type="int" name="NMAXFOCKAE">     0</i>
   <i type="logical" name="LFOCKAEDFT"> F  </i>
   <i name="HFSCREEN">      0.00000000</i>
   <i name="HFSCREENC">      0.00000000</i>
   <i type="int" name="NBANDSGWLOW">     0</i>
  </separator>
  <separator name="vdW DFT" >
   <i type="logical" name="LUSE_VDW"> F  </i>
   <i name="Zab_VDW">     -0.84910000</i>
   <i name="PARAM1">      0.12340000</i>
   <i name="PARAM2">      1.00000000</i>
   <i name="PARAM3">      0.00000000</i>
  </separator>
  <separator name="model GW" >
   <i type="int" name="MODEL_GW">     0</i>
   <i name="MODEL_EPS0">     14.89690627</i>
   <i name="MODEL_ALPHA">      1.00000000</i>
  </separator>
  <separator name="linear response parameters" >
   <i type="logical" name="LEPSILON"> F  </i>
   <i type="logical" name="LRPA"> F  </i>
   <i type="logical" name="LNABLA"> F  </i>
   <i type="logical" name="LVEL"> F  </i>
   <i type="int" name="KINTER">     0</i>
   <i name="CSHIFT">      0.10000000</i>
   <i name="OMEGAMAX">     -1.00000000</i>
   <i name="DEG_THRESHOLD">      0.00200000</i>
   <i name="RTIME">     -0.10000000</i>
   <i name="WPLASMAI">      0.00000000</i>
   <v name="DFIELD">      0.00000000      0.00000000      0.00000000</v>
   <v name="WPLASMA">      0.00000000      0.00000000      0.00000000      0.00000000      0.00000000      0.00000000      0.00000000      0.00000000      0.00000000</v>
  </separator>
  <separator name="orbital magnetization" >
   <i type="logical" name="NUCIND"> F  </i>
   <v name="MAGPOS">      0.00000000      0.00000000      0.00000000</v>
   <i type="logical" name="LNICSALL"> T  </i>
   <i type="logical" name="ORBITALMAG"> F  </i>
   <i type="logical" name="LMAGBLOCH"> F  </i>
   <i type="logical" name="LCHIMAG"> F  </i>
   <i type="logical" name="LGAUGE"> T  </i>
   <i type="int" name="MAGATOM">     0</i>
   <v name="MAGDIPOL">      0.00000000      0.00000000      0.00000000</v>
   <v name="AVECCONST">      0.00000000      0.00000000      0.00000000</v>
  </separator>
  <separator name="response functions" >
   <i type="logical" name="LFINITE_TEMPERATURE"> F  </i>
   <i type="logical" name="LADDER"> F  </i>
   <i type="logical" name="LRPAFORCE"> F  </i>
   <i type="logical" name="LFXC"> F  </i>
   <i type="logical" name="LHARTREE"> T  </i>
   <i type="int" name="IBSE">     0</i>
   <v type="int" name="KPOINT">    -1     0     0     0</v>
   <i type="logical" name="LTCTC"> F  </i>
   <i type="logical" name="LTCTE"> F  </i>
   <i type="logical" name="LTETE"> F  </i>
   <i type="logical" name="LTRIPLET"> F  </i>
   <i type="logical" name="LFXCEPS"> F  </i>
   <i type="logical" name="LFXHEG"> F  </i>
   <i type="int" name="NATURALO">     2</i>
   <i type="logical" name="L2ORDER"> F  </i>
   <i type="logical" name="LDMP1"> F  </i>
   <i type="logical" name="LMP2LT"> F  </i>
   <i type="logical" name="LSMP2LT"> F  </i>
   <i type="logical" name="LUSEW"> F  </i>
   <i name="ENCUTGW">     -2.00000000</i>
   <i name="ENCUTGWSOFT">     -2.00000000</i>
   <i name="ENCUTLF">     -1.00000000</i>
   <i type="int" name="LMAXMP2">    -1</i>
   <i name="SCISSOR">      0.00000000</i>
   <i type="int" name="NOMEGA">     0</i>
   <i type="int" name="NOMEGAR">     0</i>
   <i type="int" name="NBANDSGW">    -1</i>
   <i type="int" name="NBANDSO">    -1</i>
   <i type="int" name="NBANDSV">    -1</i>
   <i type="int" name="NELM">     1</i>
   <i type="int" name="NELMHF">     1</i>
   <i type="int" name="DIM">     3</i>
   <i type="int" name="IESPILON">     4</i>
   <i type="int" name="ANTIRES">     0</i>
   <i name="OMEGAMAX">    -30.00000000</i>
   <i name="OMEGAMIN">    -30.00000000</i>
   <i name="OMEGATL">   -200.00000000</i>
   <i type="int" name="OMEGAGRID">   145</i>
   <i name="CSHIFT">     -0.10000000</i>
   <i type="logical" name="LSELFENERGY"> F  </i>
   <i type="logical" name="LSPECTRAL"> F  </i>
   <i type="logical" name="LSPECTRALGW"> F  </i>
   <i type="logical" name="LSINGLES"> F  </i>
   <i type="logical" name="LFERMIGW"> F  </i>
   <i type="logical" name="ODDONLYGW"> F  </i>
   <i type="logical" name="EVENONLYGW"> F  </i>
   <i type="int" name="NKREDLFX">     1</i>
   <i type="int" name="NKREDLFY">     1</i>
   <i type="int" name="NKREDLFZ">     1</i>
   <i type="int" name="MAXMEM">  2800</i>
   <i type="int" name="TELESCOPE">     0</i>
   <i type="int" name="NTAUPAR">     1</i>
   <i type="int" name="NOMEGAPAR">    -1</i>
   <i name="LAMBDA">      1.00000000</i>
  </separator>
  <separator name="External order field" >
   <i name="OFIELD_KAPPA">      0.00000000</i>
   <v name="OFIELD_K">      0.00000000      0.00000000      0.00000000</v>
   <i name="OFIELD_Q6_NEAR">      0.00000000</i>
   <i name="OFIELD_Q6_FAR">      0.00000000</i>
   <i name="OFIELD_A">      0.00000000</i>
  </separator>
 </parameters>
 <atominfo>
  <atoms>       3 </atoms>
  <types>       3 </types>
  <array name="atoms" >
   <dimension dim="1">ion</dimension>
   <field type="string">element</field>
   <field type="int">atomtype</field>
   <set>
    <rc><c>Hf</c><c>   1</c></rc>
    <rc><c>Sb</c><c>   2</c></rc>
    <rc><c>Pt</c><c>   3</c></rc>
   </set>
  </array>
  <array name="atomtypes" >
   <dimension dim="1">type</dimension>
   <field type="int">atomspertype</field>
   <field type="string">element</field>
   <field>mass</field>
   <field>valence</field>
   <field type="string">pseudopotential</field>
   <set>
    <rc><c>   1</c><c>Hf</c><c>    178.49000000</c><c>     10.00000000</c><c>  PAW_PBE Hf_pv 06Sep2000               </c></rc>
    <rc><c>   1</c><c>Sb</c><c>    121.75000000</c><c>      5.00000000</c><c>  PAW_PBE Sb 06Sep2000                  </c></rc>
    <rc><c>   1</c><c>Pt</c><c>    195.08000000</c><c>     10.00000000</c><c>  PAW_PBE Pt 04Feb2005                  </c></rc>
   </set>
  </array>
 </atominfo>
 <structure name="initialpos" >
  <crystal>
   <varray name="basis" >
    <v>       0.00000000       3.33947886       3.33947886 </v>
    <v>       3.33947886       0.00000000       3.33947886 </v>
    <v>       3.33947886       3.33947886       0.00000000 </v>
   </varray>
   <i name="volume">     74.48453137 </i>
   <varray name="rec_basis" >
    <v>      -0.14972396       0.14972396       0.14972396 </v>
    <v>       0.14972396      -0.14972396       0.14972396 </v>
    <v>       0.14972396       0.14972396      -0.14972396 </v>
   </varray>
  </crystal>
  <varray name="positions" >
   <v>       0.75000000       0.75000000       0.75000000 </v>
   <v>       0.25000000       0.25000000       0.25000000 </v>
   <v>       0.00000000       0.00000000       0.00000000 </v>
  </varray>
 </structure>
 <calculation>
  <scstep>
   <time name="dav">    0.98    1.00</time>
   <time name="total">    1.13    1.25</time>
   <energy>
    <i name="alphaZ">     91.46534723 </i>
    <i name="ewald">  -1488.87289892 </i>
    <i name="hartreedc">   -351.85252863 </i>
    <i name="XCdc">    -20.17756203 </i>
    <i name="pawpsdc">   1514.36848356 </i>
    <i name="pawaedc">  -1421.27055995 </i>
    <i name="eentropy">     -0.00006430 </i>
    <i name="bandstr">     68.60484982 </i>
    <i name="atom">   1741.10451121 </i>
    <i name="e_fr_energy">    133.36957799 </i>
    <i name="e_wo_entrp">    133.36964228 </i>
    <i name="e_0_energy">    133.36961014 </i>
   </energy>
  </scstep>
  <scstep>
   <time name="dav">    1.18    1.21</time>
   <time name="total">    1.18    1.22</time>
   <energy>
    <i name="e_fr_energy">    -19.60639659 </i>
    <i name="e_wo_entrp">    -19.60617245 </i>
    <i name="e_0_energy">    -19.60628452 </i>
   </energy>
  </scstep>
  <scstep>
   <time name="dav">    1.24    1.27</time>
   <time name="total">    1.24    1.27</time>
   <energy>
    <i name="e_fr_energy">    -24.67693868 </i>
    <i name="e_wo_entrp">    -24.67687455 </i>
    <i name="e_0_energy">    -24.67690662 </i>
   </energy>
  </scstep>
  <scstep>
   <time name="dav">    1.22    1.28</time>
   <time name="total">    1.22    1.29</time>
   <energy>
    <i name="e_fr_energy">    -24.75123464 </i>
    <i name="e_wo_entrp">    -24.75117307 </i>
    <i name="e_0_energy">    -24.75120386 </i>
   </energy>
  </scstep>
  <scstep>
   <time name="dav">    1.29    1.33</time>
   <time name="total">    1.56    1.60</time>
   <energy>
    <i name="e_fr_energy">    -24.75309909 </i>
    <i name="e_wo_entrp">    -24.75303806 </i>
    <i name="e_0_energy">    -24.75306857 </i>
   </energy>
  </scstep>
  <scstep>
   <time name="dav">    1.19    1.19</time>
   <time name="total">    1.54    1.56</time>
   <energy>
    <i name="e_fr_energy">    -23.70993240 </i>
    <i name="e_wo_entrp">    -23.70973344 </i>
    <i name="e_0_energy">    -23.70983292 </i>
   </energy>
  </scstep>
  <scstep>
   <time name="dav">    1.21    1.21</time>
   <time name="total">    1.51    1.56</time>
   <energy>
    <i name="e_fr_energy">    -23.55422341 </i>
    <i name="e_wo_entrp">    -23.55390859 </i>
    <i name="e_0_energy">    -23.55406600 </i>
   </energy>
  </scstep>
  <scstep>
   <time name="dav">    1.11    1.11</time>
   <time name="total">    1.45    1.52</time>
   <energy>
    <i name="e_fr_energy">    -23.52706941 </i>
    <i name="e_wo_entrp">    -23.52677357 </i>
    <i name="e_0_energy">    -23.52692149 </i>
   </energy>
  </scstep>
  <scstep>
   <time name="dav">    1.14    1.14</time>
   <time name="total">    1.45    1.49</time>
   <energy>
    <i name="e_fr_energy">    -23.52641756 </i>
    <i name="e_wo_entrp">    -23.52612657 </i>
    <i name="e_0_energy">    -23.52627207 </i>
   </energy>
  </scstep>
  <scstep>
   <time name="dav">    1.18    1.18</time>
   <time name="total">    1.51    1.53</time>
   <energy>
    <i name="e_fr_energy">    -23.52618792 </i>
    <i name="e_wo_entrp">    -23.52589192 </i>
    <i name="e_0_energy">    -23.52603992 </i>
   </energy>
  </scstep>
  <scstep>
   <time name="dav">    1.22    1.22</time>
   <time name="total">    1.54    1.65</time>
   <energy>
    <i name="e_fr_energy">    -23.52609430 </i>
    <i name="e_wo_entrp">    -23.52580473 </i>
    <i name="e_0_energy">    -23.52594951 </i>
   </energy>
  </scstep>
  <scstep>
   <time name="dav">    1.12    1.12</time>
   <time name="total">    1.44    1.47</time>
   <energy>
    <i name="e_fr_energy">    -23.52609593 </i>
    <i name="e_wo_entrp">    -23.52580579 </i>
    <i name="e_0_energy">    -23.52595086 </i>
   </energy>
  </scstep>
  <scstep>
   <time name="dav">    1.25    1.25</time>
   <time name="total">    1.59    1.71</time>
   <energy>
    <i name="e_fr_energy">    -23.52609586 </i>
    <i name="e_wo_entrp">    -23.52580536 </i>
    <i name="e_0_energy">    -23.52595061 </i>
   </energy>
  </scstep>
  <scstep>
   <time name="dav">    1.17    1.17</time>
   <time name="total">    1.50    1.53</time>
   <energy>
    <i name="e_fr_energy">    -23.52609598 </i>
    <i name="e_wo_entrp">    -23.52580566 </i>
    <i name="e_0_energy">    -23.52595082 </i>
   </energy>
  </scstep>
  <scstep>
   <time name="dav">    0.84    0.84</time>
   <time name="total">    0.99    1.08</time>
   <energy>
    <i name="alphaZ">     91.46534723 </i>
    <i name="ewald">  -1488.87289892 </i>
    <i name="hartreedc">   -328.09319923 </i>
    <i name="XCdc">    -20.97109384 </i>
    <i name="pawpsdc">   2168.68135540 </i>
    <i name="pawaedc">  -2080.18604143 </i>
    <i name="eentropy">     -0.00029034 </i>
    <i name="bandstr">   -106.65378604 </i>
    <i name="atom">   1741.10451121 </i>
    <i name="e_fr_energy">    -23.52609595 </i>
    <i name="e_wo_entrp">    -23.52580561 </i>
    <i name="e_0_energy">    -23.52595078 </i>
   </energy>
  </scstep>
  <structure>
   <crystal>
    <varray name="basis" >
     <v>       0.00000000       3.33947886       3.33947886 </v>
     <v>       3.33947886       0.00000000       3.33947886 </v>
     <v>       3.33947886       3.33947886       0.00000000 </v>
    </varray>
    <i name="volume">     74.48453137 </i>
    <varray name="rec_basis" >
     <v>      -0.14972396       0.14972396       0.14972396 </v>
     <v>       0.14972396      -0.14972396       0.14972396 </v>
     <v>       0.14972396       0.14972396      -0.14972396 </v>
    </varray>
   </crystal>
   <varray name="positions" >
    <v>       0.75000000       0.75000000       0.75000000 </v>
    <v>       0.25000000       0.25000000       0.25000000 </v>
    <v>       0.00000000       0.00000000       0.00000000 </v>
   </varray>
  </structure>
  <varray name="forces" >
   <v>      -0.00000000      -0.00000000      -0.00000000 </v>
   <v>      -0.00000000      -0.00000000      -0.00000000 </v>
   <v>       0.00000000       0.00000000       0.00000000 </v>
  </varray>
  <varray name="stress" >
   <v>    -143.93840533      -0.00000000       0.00000000 </v>
   <v>      -0.00000000    -143.93840533       0.00000000 </v>
   <v>       0.00000000      -0.00000000    -143.93840533 </v>
  </varray>
  <energy>
   <i name="e_fr_energy">    -23.52609595 </i>
   <i name="e_wo_entrp">    -23.52595078 </i>
   <i name="e_0_energy">     -0.00029034 </i>
  </energy>
  <time name="totalsc">   23.95   25.30</time>
  <eigenvalues>
   <array>
    <dimension dim="1">band</dimension>
    <dimension dim="2">kpoint</dimension>
    <dimension dim="3">spin</dimension>
    <field>eigene</field>
    <field>occ</field>
    <set>
     <set comment="spin 1">
      <set comment="kpoint 1">
       <r>  -25.3927    1.0000 </r>
       <r>  -25.3927    1.0000 </r>
       <r>  -25.3927    1.0000 </r>
       <r>   -4.5451    1.0000 </r>
       <r>    1.9554    1.0000 </r>
       <r>    1.9554    1.0000 </r>
       <r>    1.9554    1.0000 </r>
       <r>    2.7416    1.0000 </r>
       <r>    2.7416    1.0000 </r>
       <r>    5.4041    1.0000 </r>
       <r>    5.8412    1.0000 </r>
       <r>    5.8412    1.0000 </r>
       <r>    5.8412    1.0000 </r>
       <r>    7.8855    0.0000 </r>
       <r>    7.8855    0.0000 </r>
       <r>    7.8855    0.0000 </r>
      </set>
      <set comment="kpoint 2">
       <r>  -25.3932    1.0000 </r>
       <r>  -25.3927    1.0000 </r>
       <r>  -25.3927    1.0000 </r>
       <r>   -4.4933    1.0000 </r>
       <r>    1.8668    1.0000 </r>
       <r>    1.9406    1.0000 </r>
       <r>    1.9406    1.0000 </r>
       <r>    2.7672    1.0000 </r>
       <r>    2.7672    1.0000 </r>
       <r>    5.0214    1.0000 </r>
       <r>    5.7749    1.0000 </r>
       <r>    5.7749    1.0000 </r>
       <r>    6.0177    1.0000 </r>
       <r>    7.7396    0.0000 </r>
       <r>    7.7396    0.0000 </r>
       <r>    8.1691    0.0000 </r>
      </set>
      <set comment="kpoint 3">
       <r>  -25.3945    1.0000 </r>
       <r>  -25.3927    1.0000 </r>
       <r>  -25.3927    1.0000 </r>
       <r>   -4.3435    1.0000 </r>
       <r>    1.6273    1.0000 </r>
       <r>    1.9081    1.0000 </r>
       <r>    1.9081    1.0000 </r>
       <r>    2.8271    1.0000 </r>
       <r>    2.8271    1.0000 </r>
       <r>    4.3752    1.0000 </r>
       <r>    5.6085    1.0000 </r>
       <r>    5.6085    1.0000 </r>
       <r>    6.2501    1.0000 </r>
       <r>    7.6653    0.0000 </r>
       <r>    7.6653    0.0000 </r>
       <r>    8.7954    0.0000 </r>
      </set>
      <set comment="kpoint 4">
       <r>  -25.3963    1.0000 </r>
       <r>  -25.3927    1.0000 </r>
       <r>  -25.3927    1.0000 </r>
       <r>   -4.1136    1.0000 </r>
       <r>    1.2910    1.0000 </r>
       <r>    1.8786    1.0000 </r>
       <r>    1.8786    1.0000 </r>
       <r>    2.8875    1.0000 </r>
       <r>    2.8875    1.0000 </r>
       <r>    3.7545    1.0000 </r>
       <r>    5.4115    1.0000 </r>
       <r>    5.4115    1.0000 </r>
       <r>    6.4771    1.0000 </r>
       <r>    7.7087    0.0000 </r>
       <r>    7.7087    0.0000 </r>
       <r>    9.3491    0.0000 </r>
      </set>
      <set comment="kpoint 5">
       <r>  -25.3983    1.0000 </r>
       <r>  -25.3927    1.0000 </r>
       <r>  -25.3927    1.0000 </r>
       <r>   -3.8382    1.0000 </r>
       <r>    0.9145    1.0000 </r>
       <r>    1.8642    1.0000 </r>
       <r>    1.8642    1.0000 </r>
       <r>    2.9225    1.0000 </r>
       <r>    2.9225    1.0000 </r>
       <r>    3.2646    1.0000 </r>
       <r>    5.2434    1.0000 </r>
       <r>    5.2434    1.0000 </r>
       <r>    6.6913    1.0000 </r>
       <r>    7.8349    0.0000 </r>
       <r>    7.8349    0.0000 </r>
       <r>    9.0568    0.0000 </r>
      </set>
      <set comment="kpoint 6">
       <r>  -25.3999    1.0000 </r>
       <r>  -25.3927    1.0000 </r>
       <r>  -25.3927    1.0000 </r>
       <r>   -3.5749    1.0000 </r>
       <r>    0.5696    1.0000 </r>
       <r>    1.8641    1.0000 </r>
       <r>    1.8641    1.0000 </r>
       <r>    2.9279    1.0000 </r>
       <r>    2.9279    1.0000 </r>
       <r>    2.9425    1.0000 </r>
       <r>    5.1322    1.0000 </r>
       <r>    5.1322    1.0000 </r>
       <r>    6.8947    1.0000 </r>
       <r>    7.9969    0.0000 </r>
       <r>    7.9969    0.0000 </r>
       <r>    8.4521    0.0000 </r>
      </set>
      <set comment="kpoint 7">
       <r>  -25.4008    1.0000 </r>
       <r>  -25.3927    1.0000 </r>
       <r>  -25.3927    1.0000 </r>
       <r>   -3.4062    1.0000 </r>
       <r>    0.3545    1.0000 </r>
       <r>    1.8690    1.0000 </r>
       <r>    1.8690    1.0000 </r>
       <r>    2.7866    1.0000 </r>
       <r>    2.9209    1.0000 </r>
       <r>    2.9209    1.0000 </r>
       <r>    5.0801    1.0000 </r>
       <r>    5.0801    1.0000 </r>
       <r>    7.0638    1.0000 </r>
       <r>    8.0400    0.0000 </r>
       <r>    8.1197    0.0000 </r>
       <r>    8.1197    0.0000 </r>
      </set>
      <set comment="kpoint 8">
       <r>  -25.3932    1.0000 </r>
       <r>  -25.3928    1.0000 </r>
       <r>  -25.3928    1.0000 </r>
       <r>   -4.4763    1.0000 </r>
       <r>    1.7611    1.0000 </r>
       <r>    1.9816    1.0000 </r>
       <r>    1.9816    1.0000 </r>
       <r>    2.7688    1.0000 </r>
       <r>    2.7719    1.0000 </r>
       <r>    5.0095    1.0000 </r>
       <r>    5.6593    1.0000 </r>
       <r>    5.6593    1.0000 </r>
       <r>    6.1544    1.0000 </r>
       <r>    7.5808    0.0000 </r>
       <r>    8.1292    0.0000 </r>
       <r>    8.1298    0.0000 </r>
      </set>
      <set comment="kpoint 9">
       <r>  -25.3941    1.0000 </r>
       <r>  -25.3928    1.0000 </r>
       <r>  -25.3928    1.0000 </r>
       <r>   -4.3601    1.0000 </r>
       <r>    1.5543    1.0000 </r>
       <r>    1.9654    1.0000 </r>
       <r>    1.9923    1.0000 </r>
       <r>    2.8061    1.0000 </r>
       <r>    2.8156    1.0000 </r>
       <r>    4.5566    1.0000 </r>
       <r>    5.4780    1.0000 </r>
       <r>    5.4963    1.0000 </r>
       <r>    6.3896    1.0000 </r>
       <r>    7.4650    0.0000 </r>
       <r>    7.8837    0.0000 </r>
       <r>    8.5113    0.0000 </r>
      </set>
      <set comment="kpoint 10">
       <r>  -25.3958    1.0000 </r>
       <r>  -25.3929    1.0000 </r>
       <r>  -25.3928    1.0000 </r>
       <r>   -4.1584    1.0000 </r>
       <r>    1.2885    1.0000 </r>
       <r>    1.9037    1.0000 </r>
       <r>    1.9822    1.0000 </r>
       <r>    2.8596    1.0000 </r>
       <r>    2.8784    1.0000 </r>
       <r>    3.9588    1.0000 </r>
       <r>    5.2934    1.0000 </r>
       <r>    5.3141    1.0000 </r>
       <r>    6.6556    1.0000 </r>
       <r>    7.4947    0.0000 </r>
       <r>    7.8069    0.0000 </r>
       <r>    8.9695    0.0000 </r>
      </set>
      <set comment="kpoint 11">
       <r>  -25.3976    1.0000 </r>
       <r>  -25.3929    1.0000 </r>
       <r>  -25.3928    1.0000 </r>
       <r>   -3.8998    1.0000 </r>
       <r>    0.9785    1.0000 </r>
       <r>    1.8508    1.0000 </r>
       <r>    1.9656    1.0000 </r>
       <r>    2.9047    1.0000 </r>
       <r>    2.9222    1.0000 </r>
       <r>    3.4259    1.0000 </r>
       <r>    5.1455    1.0000 </r>
       <r>    5.1477    1.0000 </r>
       <r>    6.8284    1.0000 </r>
       <r>    7.7041    0.0000 </r>
       <r>    7.8406    0.0000 </r>
       <r>    9.1000    0.0000 </r>
      </set>
      <set comment="kpoint 12">
       <r>  -25.3993    1.0000 </r>
       <r>  -25.3929    1.0000 </r>
       <r>  -25.3929    1.0000 </r>
       <r>   -3.6331    1.0000 </r>
       <r>    0.6673    1.0000 </r>
       <r>    1.8289    1.0000 </r>
       <r>    1.9464    1.0000 </r>
       <r>    2.9138    1.0000 </r>
       <r>    2.9355    1.0000 </r>
       <r>    3.0526    1.0000 </r>
       <r>    5.0157    1.0000 </r>
       <r>    5.0587    1.0000 </r>
       <r>    6.9576    1.0000 </r>
       <r>    7.9591    0.0000 </r>
       <r>    7.9735    0.0000 </r>
       <r>    8.6010    0.0000 </r>
      </set>
      <set comment="kpoint 13">
       <r>  -25.4004    1.0000 </r>
       <r>  -25.3930    1.0000 </r>
       <r>  -25.3929    1.0000 </r>
       <r>   -3.4312    1.0000 </r>
       <r>    0.4336    1.0000 </r>
       <r>    1.8379    1.0000 </r>
       <r>    1.9196    1.0000 </r>
       <r>    2.8018    1.0000 </r>
       <r>    2.9343    1.0000 </r>
       <r>    2.9478    1.0000 </r>
       <r>    4.9338    1.0000 </r>
       <r>    5.0235    1.0000 </r>
       <r>    7.0980    0.9138 </r>
       <r>    8.0730    0.0000 </r>
       <r>    8.0954    0.0000 </r>
       <r>    8.2361    0.0000 </r>
      </set>
      <set comment="kpoint 14">
       <r>  -25.4007    1.0000 </r>
       <r>  -25.3931    1.0000 </r>
       <r>  -25.3928    1.0000 </r>
       <r>   -3.3728    1.0000 </r>
       <r>    0.3669    1.0000 </r>
       <r>    1.8687    1.0000 </r>
       <r>    1.8812    1.0000 </r>
       <r>    2.7511    1.0000 </r>
       <r>    2.9387    1.0000 </r>
       <r>    2.9392    1.0000 </r>
       <r>    4.8918    1.0000 </r>
       <r>    5.0360    1.0000 </r>
       <r>    7.1733    0.0000 </r>
       <r>    7.9226    0.0000 </r>
       <r>    8.1413    0.0000 </r>
       <r>    8.2969    0.0000 </r>
      </set>
      <set comment="kpoint 15">
       <r>  -25.4001    1.0000 </r>
       <r>  -25.3932    1.0000 </r>
       <r>  -25.3927    1.0000 </r>
       <r>   -3.4857    1.0000 </r>
       <r>    0.4996    1.0000 </r>
       <r>    1.8390    1.0000 </r>
       <r>    1.9103    1.0000 </r>
       <r>    2.8345    1.0000 </r>
       <r>    2.9505    1.0000 </r>
       <r>    2.9599    1.0000 </r>
       <r>    4.8795    1.0000 </r>
       <r>    5.1000    1.0000 </r>
       <r>    7.0785    1.0000 </r>
       <r>    8.0447    0.0000 </r>
       <r>    8.0904    0.0000 </r>
       <r>    8.3161    0.0000 </r>
      </set>
      <set comment="kpoint 16">
       <r>  -25.3988    1.0000 </r>
       <r>  -25.3932    1.0000 </r>
       <r>  -25.3926    1.0000 </r>
       <r>   -3.7184    1.0000 </r>
       <r>    0.7755    1.0000 </r>
       <r>    1.8086    1.0000 </r>
       <r>    1.9541    1.0000 </r>
       <r>    2.9012    1.0000 </r>
       <r>    2.9502    1.0000 </r>
       <r>    3.1621    1.0000 </r>
       <r>    4.9002    1.0000 </r>
       <r>    5.2251    1.0000 </r>
       <r>    6.9504    1.0000 </r>
       <r>    7.8645    0.0000 </r>
       <r>    7.9617    0.0000 </r>
       <r>    8.7916    0.0000 </r>
      </set>
      <set comment="kpoint 17">
       <r>  -25.3970    1.0000 </r>
       <r>  -25.3931    1.0000 </r>
       <r>  -25.3926    1.0000 </r>
       <r>   -3.9893    1.0000 </r>
       <r>    1.1067    1.0000 </r>
       <r>    1.8040    1.0000 </r>
       <r>    1.9935    1.0000 </r>
       <r>    2.8862    1.0000 </r>
       <r>    2.9229    1.0000 </r>
       <r>    3.5913    1.0000 </r>
       <r>    4.9738    1.0000 </r>
       <r>    5.4078    1.0000 </r>
       <r>    6.8117    1.0000 </r>
       <r>    7.6783    0.0000 </r>
       <r>    7.8116    0.0000 </r>
       <r>    8.9882    0.0000 </r>
      </set>
      <set comment="kpoint 18">
       <r>  -25.3952    1.0000 </r>
       <r>  -25.3930    1.0000 </r>
       <r>  -25.3926    1.0000 </r>
       <r>   -4.2334    1.0000 </r>
       <r>    1.4278    1.0000 </r>
       <r>    1.8305    1.0000 </r>
       <r>    2.0178    1.0000 </r>
       <r>    2.8391    1.0000 </r>
       <r>    2.8699    1.0000 </r>
       <r>    4.1485    1.0000 </r>
       <r>    5.1310    1.0000 </r>
       <r>    5.6119    1.0000 </r>
       <r>    6.5937    1.0000 </r>
       <r>    7.5494    0.0000 </r>
       <r>    7.7827    0.0000 </r>
       <r>    8.5991    0.0000 </r>
      </set>
      <set comment="kpoint 19">
       <r>  -25.3938    1.0000 </r>
       <r>  -25.3929    1.0000 </r>
       <r>  -25.3926    1.0000 </r>
       <r>   -4.4091    1.0000 </r>
       <r>    1.6970    1.0000 </r>
       <r>    1.8820    1.0000 </r>
       <r>    2.0034    1.0000 </r>
       <r>    2.7904    1.0000 </r>
       <r>    2.8091    1.0000 </r>
       <r>    4.6877    1.0000 </r>
       <r>    5.4247    1.0000 </r>
       <r>    5.7601    1.0000 </r>
       <r>    6.2855    1.0000 </r>
       <r>    7.5493    0.0000 </r>
       <r>    7.8567    0.0000 </r>
       <r>    8.2431    0.0000 </r>
      </set>
      <set comment="kpoint 20">
       <r>  -25.3945    1.0000 </r>
       <r>  -25.3930    1.0000 </r>
       <r>  -25.3930    1.0000 </r>
       <r>   -4.2813    1.0000 </r>
       <r>    1.3409    1.0000 </r>
       <r>    2.0566    1.0000 </r>
       <r>    2.0566    1.0000 </r>
       <r>    2.7820    1.0000 </r>
       <r>    2.8464    1.0000 </r>
       <r>    4.4924    1.0000 </r>
       <r>    5.2904    1.0000 </r>
       <r>    5.2904    1.0000 </r>
       <r>    6.4518    1.0000 </r>
       <r>    7.3668    0.0000 </r>
       <r>    7.9390    0.0000 </r>
       <r>    8.6281    0.0000 </r>
      </set>
      <set comment="kpoint 21">
       <r>  -25.3957    1.0000 </r>
       <r>  -25.3931    1.0000 </r>
       <r>  -25.3931    1.0000 </r>
       <r>   -4.1172    1.0000 </r>
       <r>    1.1155    1.0000 </r>
       <r>    2.0548    1.0000 </r>
       <r>    2.0882    1.0000 </r>
       <r>    2.7922    1.0000 </r>
       <r>    2.9050    1.0000 </r>
       <r>    4.1060    1.0000 </r>
       <r>    5.0738    1.0000 </r>
       <r>    5.1095    1.0000 </r>
       <r>    6.7185    1.0000 </r>
       <r>    7.3100    0.0000 </r>
       <r>    7.8405    0.0000 </r>
       <r>    8.8940    0.0000 </r>
      </set>
      <set comment="kpoint 22">
       <r>  -25.3972    1.0000 </r>
       <r>  -25.3932    1.0000 </r>
       <r>  -25.3932    1.0000 </r>
       <r>   -3.8916    1.0000 </r>
       <r>    0.9000    1.0000 </r>
       <r>    1.9815    1.0000 </r>
       <r>    2.0915    1.0000 </r>
       <r>    2.8376    1.0000 </r>
       <r>    2.9556    1.0000 </r>
       <r>    3.6057    1.0000 </r>
       <r>    4.8617    1.0000 </r>
       <r>    4.9764    1.0000 </r>
       <r>    7.0049    1.0000 </r>
       <r>    7.4679    0.0000 </r>
       <r>    7.8058    0.0000 </r>
       <r>    9.0073    0.0000 </r>
      </set>
      <set comment="kpoint 23">
       <r>  -25.3987    1.0000 </r>
       <r>  -25.3935    1.0000 </r>
       <r>  -25.3932    1.0000 </r>
       <r>   -3.6454    1.0000 </r>
       <r>    0.7047    1.0000 </r>
       <r>    1.8944    1.0000 </r>
       <r>    2.0711    1.0000 </r>
       <r>    2.8761    1.0000 </r>
       <r>    2.9765    1.0000 </r>
       <r>    3.1769    1.0000 </r>
       <r>    4.6980    1.0000 </r>
       <r>    4.9047    1.0000 </r>
       <r>    7.0489    1.0000 </r>
       <r>    7.8829    0.0000 </r>
       <r>    7.9375    0.0000 </r>
       <r>    8.6775    0.0000 </r>
      </set>
      <set comment="kpoint 24">
       <r>  -25.3998    1.0000 </r>
       <r>  -25.3937    1.0000 </r>
       <r>  -25.3931    1.0000 </r>
       <r>   -3.4384    1.0000 </r>
       <r>    0.5503    1.0000 </r>
       <r>    1.8363    1.0000 </r>
       <r>    2.0249    1.0000 </r>
       <r>    2.8015    1.0000 </r>
       <r>    2.9797    1.0000 </r>
       <r>    2.9928    1.0000 </r>
       <r>    4.5851    1.0000 </r>
       <r>    4.8850    1.0000 </r>
       <r>    7.1123    0.2565 </r>
       <r>    8.0395    0.0000 </r>
       <r>    8.1958    0.0000 </r>
       <r>    8.3590    0.0000 </r>
      </set>
      <set comment="kpoint 25">
       <r>  -25.4002    1.0000 </r>
       <r>  -25.3940    1.0000 </r>
       <r>  -25.3930    1.0000 </r>
       <r>   -3.3390    1.0000 </r>
       <r>    0.4787    1.0000 </r>
       <r>    1.8333    1.0000 </r>
       <r>    1.9545    1.0000 </r>
       <r>    2.6988    1.0000 </r>
       <r>    2.9864    1.0000 </r>
       <r>    2.9938    1.0000 </r>
       <r>    4.5094    1.0000 </r>
       <r>    4.9070    1.0000 </r>
       <r>    7.2305    0.0000 </r>
       <r>    7.8903    0.0000 </r>
       <r>    8.1573    0.0000 </r>
       <r>    8.6025    0.0000 </r>
      </set>
      <set comment="kpoint 26">
       <r>  -25.3999    1.0000 </r>
       <r>  -25.3942    1.0000 </r>
       <r>  -25.3928    1.0000 </r>
       <r>   -3.3881    1.0000 </r>
       <r>    0.5252    1.0000 </r>
       <r>    1.8751    1.0000 </r>
       <r>    1.8916    1.0000 </r>
       <r>    2.7281    1.0000 </r>
       <r>    2.9974    1.0000 </r>
       <r>    3.0267    1.0000 </r>
       <r>    4.4501    1.0000 </r>
       <r>    4.9760    1.0000 </r>
       <r>    7.2755    0.0000 </r>
       <r>    7.9539    0.0000 </r>
       <r>    8.1177    0.0000 </r>
       <r>    8.6173    0.0000 </r>
      </set>
      <set comment="kpoint 27">
       <r>  -25.3990    1.0000 </r>
       <r>  -25.3942    1.0000 </r>
       <r>  -25.3927    1.0000 </r>
       <r>   -3.5651    1.0000 </r>
       <r>    0.6800    1.0000 </r>
       <r>    1.8091    1.0000 </r>
       <r>    1.9860    1.0000 </r>
       <r>    2.8320    1.0000 </r>
       <r>    2.9964    1.0000 </r>
       <r>    3.1492    1.0000 </r>
       <r>    4.4056    1.0000 </r>
       <r>    5.1033    1.0000 </r>
       <r>    7.2576    0.0000 </r>
       <r>    7.9565    0.0000 </r>
       <r>    8.1891    0.0000 </r>
       <r>    8.5837    0.0000 </r>
      </set>
      <set comment="kpoint 28">
       <r>  -25.3976    1.0000 </r>
       <r>  -25.3940    1.0000 </r>
       <r>  -25.3926    1.0000 </r>
       <r>   -3.8057    1.0000 </r>
       <r>    0.9040    1.0000 </r>
       <r>    1.7749    1.0000 </r>
       <r>    2.0663    1.0000 </r>
       <r>    2.8738    1.0000 </r>
       <r>    2.9711    1.0000 </r>
       <r>    3.4695    1.0000 </r>
       <r>    4.4245    1.0000 </r>
       <r>    5.2841    1.0000 </r>
       <r>    7.2541    0.0000 </r>
       <r>    7.7607    0.0000 </r>
       <r>    7.9642    0.0000 </r>
       <r>    8.7272    0.0000 </r>
      </set>
      <set comment="kpoint 29">
       <r>  -25.3963    1.0000 </r>
       <r>  -25.3936    1.0000 </r>
       <r>  -25.3925    1.0000 </r>
       <r>   -4.0444    1.0000 </r>
       <r>    1.1636    1.0000 </r>
       <r>    1.7822    1.0000 </r>
       <r>    2.0855    1.0000 </r>
       <r>    2.8595    1.0000 </r>
       <r>    2.9242    1.0000 </r>
       <r>    3.8643    1.0000 </r>
       <r>    4.6334    1.0000 </r>
       <r>    5.4793    1.0000 </r>
       <r>    7.0530    1.0000 </r>
       <r>    7.6000    0.0000 </r>
       <r>    7.7977    0.0000 </r>
       <r>    8.5855    0.0000 </r>
      </set>
      <set comment="kpoint 30">
       <r>  -25.3963    1.0000 </r>
       <r>  -25.3934    1.0000 </r>
       <r>  -25.3934    1.0000 </r>
       <r>   -3.9965    1.0000 </r>
       <r>    0.9226    1.0000 </r>
       <r>    2.1695    1.0000 </r>
       <r>    2.1695    1.0000 </r>
       <r>    2.7208    1.0000 </r>
       <r>    2.9623    1.0000 </r>
       <r>    4.0002    1.0000 </r>
       <r>    4.9242    1.0000 </r>
       <r>    4.9242    1.0000 </r>
       <r>    6.6069    1.0000 </r>
       <r>    7.3131    0.0000 </r>
       <r>    7.7629    0.0000 </r>
       <r>    8.9875    0.0000 </r>
      </set>
      <set comment="kpoint 31">
       <r>  -25.3975    1.0000 </r>
       <r>  -25.3936    1.0000 </r>
       <r>  -25.3935    1.0000 </r>
       <r>   -3.8156    1.0000 </r>
       <r>    0.7672    1.0000 </r>
       <r>    2.1638    1.0000 </r>
       <r>    2.2121    1.0000 </r>
       <r>    2.7218    1.0000 </r>
       <r>    3.0207    1.0000 </r>
       <r>    3.6666    1.0000 </r>
       <r>    4.6988    1.0000 </r>
       <r>    4.7863    1.0000 </r>
       <r>    6.8022    1.0000 </r>
       <r>    7.3829    0.0000 </r>
       <r>    7.6921    0.0000 </r>
       <r>    8.9965    0.0000 </r>
      </set>
      <set comment="kpoint 32">
       <r>  -25.3987    1.0000 </r>
       <r>  -25.3939    1.0000 </r>
       <r>  -25.3935    1.0000 </r>
       <r>   -3.6086    1.0000 </r>
       <r>    0.6712    1.0000 </r>
       <r>    2.0566    1.0000 </r>
       <r>    2.2122    1.0000 </r>
       <r>    2.7913    1.0000 </r>
       <r>    3.0499    1.0000 </r>
       <r>    3.2644    1.0000 </r>
       <r>    4.4459    1.0000 </r>
       <r>    4.7170    1.0000 </r>
       <r>    6.9497    1.0000 </r>
       <r>    7.7285    0.0000 </r>
       <r>    7.7811    0.0000 </r>
       <r>    8.7341    0.0000 </r>
      </set>
      <set comment="kpoint 33">
       <r>  -25.3994    1.0000 </r>
       <r>  -25.3945    1.0000 </r>
       <r>  -25.3935    1.0000 </r>
       <r>   -3.4224    1.0000 </r>
       <r>    0.6376    1.0000 </r>
       <r>    1.9230    1.0000 </r>
       <r>    2.1660    1.0000 </r>
       <r>    2.7780    1.0000 </r>
       <r>    3.0181    1.0000 </r>
       <r>    3.0543    1.0000 </r>
       <r>    4.2491    1.0000 </r>
       <r>    4.7053    1.0000 </r>
       <r>    7.0000    1.0000 </r>
       <r>    7.9006    0.0000 </r>
       <r>    8.2854    0.0000 </r>
       <r>    8.3811    0.0000 </r>
      </set>
      <set comment="kpoint 34">
       <r>  -25.3997    1.0000 </r>
       <r>  -25.3950    1.0000 </r>
       <r>  -25.3933    1.0000 </r>
       <r>   -3.3089    1.0000 </r>
       <r>    0.6458    1.0000 </r>
       <r>    1.8205    1.0000 </r>
       <r>    2.0771    1.0000 </r>
       <r>    2.6243    1.0000 </r>
       <r>    3.0548    1.0000 </r>
       <r>    3.0565    1.0000 </r>
       <r>    4.1166    1.0000 </r>
       <r>    4.7337    1.0000 </r>
       <r>    7.1068    0.5481 </r>
       <r>    7.9677    0.0000 </r>
       <r>    8.1306    0.0000 </r>
       <r>    8.7122    0.0000 </r>
      </set>
      <set comment="kpoint 35">
       <r>  -25.3994    1.0000 </r>
       <r>  -25.3954    1.0000 </r>
       <r>  -25.3931    1.0000 </r>
       <r>   -3.3053    1.0000 </r>
       <r>    0.6600    1.0000 </r>
       <r>    1.8159    1.0000 </r>
       <r>    1.9671    1.0000 </r>
       <r>    2.6027    1.0000 </r>
       <r>    3.0595    1.0000 </r>
       <r>    3.1260    1.0000 </r>
       <r>    4.0311    1.0000 </r>
       <r>    4.8047    1.0000 </r>
       <r>    7.2720    0.0000 </r>
       <r>    7.8275    0.0000 </r>
       <r>    8.2025    0.0000 </r>
       <r>    8.7318    0.0000 </r>
      </set>
      <set comment="kpoint 36">
       <r>  -25.3988    1.0000 </r>
       <r>  -25.3954    1.0000 </r>
       <r>  -25.3928    1.0000 </r>
       <r>   -3.4132    1.0000 </r>
       <r>    0.6826    1.0000 </r>
       <r>    1.8657    1.0000 </r>
       <r>    1.9152    1.0000 </r>
       <r>    2.7053    1.0000 </r>
       <r>    3.0492    1.0000 </r>
       <r>    3.2153    1.0000 </r>
       <r>    3.9895    1.0000 </r>
       <r>    4.9298    1.0000 </r>
       <r>    7.3627    0.0000 </r>
       <r>    8.0477    0.0000 </r>
       <r>    8.0888    0.0000 </r>
       <r>    8.6561    0.0000 </r>
      </set>
      <set comment="kpoint 37">
       <r>  -25.3982    1.0000 </r>
       <r>  -25.3949    1.0000 </r>
       <r>  -25.3927    1.0000 </r>
       <r>   -3.5975    1.0000 </r>
       <r>    0.7566    1.0000 </r>
       <r>    1.7969    1.0000 </r>
       <r>    2.0290    1.0000 </r>
       <r>    2.8243    1.0000 </r>
       <r>    3.0177    1.0000 </r>
       <r>    3.3451    1.0000 </r>
       <r>    4.0734    1.0000 </r>
       <r>    5.1024    1.0000 </r>
       <r>    7.3865    0.0000 </r>
       <r>    7.9172    0.0000 </r>
       <r>    8.3079    0.0000 </r>
       <r>    8.6123    0.0000 </r>
      </set>
      <set comment="kpoint 38">
       <r>  -25.3984    1.0000 </r>
       <r>  -25.3937    1.0000 </r>
       <r>  -25.3937    1.0000 </r>
       <r>   -3.6867    1.0000 </r>
       <r>    0.6647    1.0000 </r>
       <r>    2.2997    1.0000 </r>
       <r>    2.2997    1.0000 </r>
       <r>    2.6076    1.0000 </r>
       <r>    3.0951    1.0000 </r>
       <r>    3.4891    1.0000 </r>
       <r>    4.6306    1.0000 </r>
       <r>    4.6306    1.0000 </r>
       <r>    6.6418    1.0000 </r>
       <r>    7.3913    0.0000 </r>
       <r>    7.5654    0.0000 </r>
       <r>    8.9542    0.0000 </r>
      </set>
      <set comment="kpoint 39">
       <r>  -25.3993    1.0000 </r>
       <r>  -25.3940    1.0000 </r>
       <r>  -25.3938    1.0000 </r>
       <r>   -3.5319    1.0000 </r>
       <r>    0.6331    1.0000 </r>
       <r>    2.2482    1.0000 </r>
       <r>    2.3373    1.0000 </r>
       <r>    2.6496    1.0000 </r>
       <r>    3.1412    1.0000 </r>
       <r>    3.1808    1.0000 </r>
       <r>    4.4165    1.0000 </r>
       <r>    4.5451    1.0000 </r>
       <r>    6.7357    1.0000 </r>
       <r>    7.5305    0.0000 </r>
       <r>    7.5690    0.0000 </r>
       <r>    8.7520    0.0000 </r>
      </set>
      <set comment="kpoint 40">
       <r>  -25.3998    1.0000 </r>
       <r>  -25.3946    1.0000 </r>
       <r>  -25.3938    1.0000 </r>
       <r>   -3.3863    1.0000 </r>
       <r>    0.6838    1.0000 </r>
       <r>    2.0862    1.0000 </r>
       <r>    2.3133    1.0000 </r>
       <r>    2.7050    1.0000 </r>
       <r>    2.9398    1.0000 </r>
       <r>    3.1484    1.0000 </r>
       <r>    4.1264    1.0000 </r>
       <r>    4.5292    1.0000 </r>
       <r>    6.8236    1.0000 </r>
       <r>    7.6598    0.0000 </r>
       <r>    8.0692    0.0000 </r>
       <r>    8.4365    0.0000 </r>
      </set>
      <set comment="kpoint 41">
       <r>  -25.3997    1.0000 </r>
       <r>  -25.3954    1.0000 </r>
       <r>  -25.3936    1.0000 </r>
       <r>   -3.2852    1.0000 </r>
       <r>    0.7867    1.0000 </r>
       <r>    1.9020    1.0000 </r>
       <r>    2.2264    1.0000 </r>
       <r>    2.5182    1.0000 </r>
       <r>    3.0471    1.0000 </r>
       <r>    3.1394    1.0000 </r>
       <r>    3.8859    1.0000 </r>
       <r>    4.5607    1.0000 </r>
       <r>    6.9148    1.0000 </r>
       <r>    7.9617    0.0000 </r>
       <r>    8.0808    0.0000 </r>
       <r>    8.6376    0.0000 </r>
      </set>
      <set comment="kpoint 42">
       <r>  -25.3992    1.0000 </r>
       <r>  -25.3962    1.0000 </r>
       <r>  -25.3934    1.0000 </r>
       <r>   -3.2537    1.0000 </r>
       <r>    0.8431    1.0000 </r>
       <r>    1.7661    1.0000 </r>
       <r>    2.0997    1.0000 </r>
       <r>    2.4621    1.0000 </r>
       <r>    3.1245    1.0000 </r>
       <r>    3.1963    1.0000 </r>
       <r>    3.7391    1.0000 </r>
       <r>    4.6353    1.0000 </r>
       <r>    7.0815    0.9999 </r>
       <r>    7.8638    0.0000 </r>
       <r>    8.2653    0.0000 </r>
       <r>    8.5981    0.0000 </r>
      </set>
      <set comment="kpoint 43">
       <r>  -25.3987    1.0000 </r>
       <r>  -25.3964    1.0000 </r>
       <r>  -25.3931    1.0000 </r>
       <r>   -3.3000    1.0000 </r>
       <r>    0.7720    1.0000 </r>
       <r>    1.7987    1.0000 </r>
       <r>    1.9691    1.0000 </r>
       <r>    2.5550    1.0000 </r>
       <r>    3.0951    1.0000 </r>
       <r>    3.2662    1.0000 </r>
       <r>    3.7499    1.0000 </r>
       <r>    4.7614    1.0000 </r>
       <r>    7.2888    0.0000 </r>
       <r>    7.8187    0.0000 </r>
       <r>    8.2236    0.0000 </r>
       <r>    8.5573    0.0000 </r>
      </set>
      <set comment="kpoint 44">
       <r>  -25.4001    1.0000 </r>
       <r>  -25.3940    1.0000 </r>
       <r>  -25.3940    1.0000 </r>
       <r>   -3.4346    1.0000 </r>
       <r>    0.6459    1.0000 </r>
       <r>    2.4173    1.0000 </r>
       <r>    2.4173    1.0000 </r>
       <r>    2.4882    1.0000 </r>
       <r>    2.9444    1.0000 </r>
       <r>    3.2145    1.0000 </r>
       <r>    4.4316    1.0000 </r>
       <r>    4.4316    1.0000 </r>
       <r>    6.6245    1.0000 </r>
       <r>    7.3918    0.0000 </r>
       <r>    7.4481    0.0000 </r>
       <r>    8.7112    0.0000 </r>
      </set>
      <set comment="kpoint 45">
       <r>  -25.4005    1.0000 </r>
       <r>  -25.3943    1.0000 </r>
       <r>  -25.3941    1.0000 </r>
       <r>   -3.3409    1.0000 </r>
       <r>    0.7271    1.0000 </r>
       <r>    2.2719    1.0000 </r>
       <r>    2.4311    1.0000 </r>
       <r>    2.5726    1.0000 </r>
       <r>    2.7369    1.0000 </r>
       <r>    3.2377    1.0000 </r>
       <r>    4.2462    1.0000 </r>
       <r>    4.3958    1.0000 </r>
       <r>    6.6696    1.0000 </r>
       <r>    7.4114    0.0000 </r>
       <r>    7.6385    0.0000 </r>
       <r>    8.5155    0.0000 </r>
      </set>
      <set comment="kpoint 46">
       <r>  -25.4004    1.0000 </r>
       <r>  -25.3950    1.0000 </r>
       <r>  -25.3939    1.0000 </r>
       <r>   -3.2723    1.0000 </r>
       <r>    0.8490    1.0000 </r>
       <r>    2.0841    1.0000 </r>
       <r>    2.3689    1.0000 </r>
       <r>    2.3982    1.0000 </r>
       <r>    2.8945    1.0000 </r>
       <r>    3.2195    1.0000 </r>
       <r>    3.9561    1.0000 </r>
       <r>    4.4238    1.0000 </r>
       <r>    6.7494    1.0000 </r>
       <r>    7.6351    0.0000 </r>
       <r>    8.0749    0.0000 </r>
       <r>    8.3804    0.0000 </r>
      </set>
      <set comment="kpoint 47">
       <r>  -25.3998    1.0000 </r>
       <r>  -25.3958    1.0000 </r>
       <r>  -25.3937    1.0000 </r>
       <r>   -3.2419    1.0000 </r>
       <r>    0.9249    1.0000 </r>
       <r>    1.8637    1.0000 </r>
       <r>    2.2461    1.0000 </r>
       <r>    2.3608    1.0000 </r>
       <r>    3.0993    1.0000 </r>
       <r>    3.1799    1.0000 </r>
       <r>    3.7334    1.0000 </r>
       <r>    4.5038    1.0000 </r>
       <r>    6.8815    1.0000 </r>
       <r>    8.0041    0.0000 </r>
       <r>    8.0306    0.0000 </r>
       <r>    8.4473    0.0000 </r>
      </set>
      <set comment="kpoint 48">
       <r>  -25.4011    1.0000 </r>
       <r>  -25.3942    1.0000 </r>
       <r>  -25.3942    1.0000 </r>
       <r>   -3.3004    1.0000 </r>
       <r>    0.7871    1.0000 </r>
       <r>    2.3821    1.0000 </r>
       <r>    2.4881    1.0000 </r>
       <r>    2.4881    1.0000 </r>
       <r>    2.5340    1.0000 </r>
       <r>    3.2864    1.0000 </r>
       <r>    4.3325    1.0000 </r>
       <r>    4.3325    1.0000 </r>
       <r>    6.6056    1.0000 </r>
       <r>    7.2892    0.0000 </r>
       <r>    7.4213    0.0000 </r>
       <r>    8.5274    0.0000 </r>
      </set>
      <set comment="kpoint 49">
       <r>  -25.4010    1.0000 </r>
       <r>  -25.3944    1.0000 </r>
       <r>  -25.3941    1.0000 </r>
       <r>   -3.2763    1.0000 </r>
       <r>    0.8406    1.0000 </r>
       <r>    2.2990    1.0000 </r>
       <r>    2.3394    1.0000 </r>
       <r>    2.4658    1.0000 </r>
       <r>    2.6880    1.0000 </r>
       <r>    3.2761    1.0000 </r>
       <r>    4.1898    1.0000 </r>
       <r>    4.3445    1.0000 </r>
       <r>    6.6446    1.0000 </r>
       <r>    7.3684    0.0000 </r>
       <r>    7.6263    0.0000 </r>
       <r>    8.4402    0.0000 </r>
      </set>
      <set comment="kpoint 50">
       <r>  -25.3951    1.0000 </r>
       <r>  -25.3932    1.0000 </r>
       <r>  -25.3927    1.0000 </r>
       <r>   -4.2190    1.0000 </r>
       <r>    1.3223    1.0000 </r>
       <r>    1.9232    1.0000 </r>
       <r>    2.0650    1.0000 </r>
       <r>    2.8217    1.0000 </r>
       <r>    2.8685    1.0000 </r>
       <r>    4.2387    1.0000 </r>
       <r>    5.0306    1.0000 </r>
       <r>    5.4709    1.0000 </r>
       <r>    6.6934    1.0000 </r>
       <r>    7.3909    0.0000 </r>
       <r>    7.8601    0.0000 </r>
       <r>    8.5846    0.0000 </r>
      </set>
      <set comment="kpoint 51">
       <r>  -25.3966    1.0000 </r>
       <r>  -25.3934    1.0000 </r>
       <r>  -25.3927    1.0000 </r>
       <r>   -4.0045    1.0000 </r>
       <r>    1.0702    1.0000 </r>
       <r>    1.8691    1.0000 </r>
       <r>    2.0783    1.0000 </r>
       <r>    2.8583    1.0000 </r>
       <r>    2.9248    1.0000 </r>
       <r>    3.7717    1.0000 </r>
       <r>    4.7518    1.0000 </r>
       <r>    5.3234    1.0000 </r>
       <r>    7.0242    1.0000 </r>
       <r>    7.4684    0.0000 </r>
       <r>    7.8292    0.0000 </r>
       <r>    8.8073    0.0000 </r>
      </set>
      <set comment="kpoint 52">
       <r>  -25.3982    1.0000 </r>
       <r>  -25.3936    1.0000 </r>
       <r>  -25.3928    1.0000 </r>
       <r>   -3.7516    1.0000 </r>
       <r>    0.8183    1.0000 </r>
       <r>    1.8353    1.0000 </r>
       <r>    2.0427    1.0000 </r>
       <r>    2.8862    1.0000 </r>
       <r>    2.9587    1.0000 </r>
       <r>    3.3137    1.0000 </r>
       <r>    4.6445    1.0000 </r>
       <r>    5.1523    1.0000 </r>
       <r>    7.1105    0.3466 </r>
       <r>    7.7618    0.0000 </r>
       <r>    7.9515    0.0000 </r>
       <r>    8.8403    0.0000 </r>
      </set>
      <set comment="kpoint 53">
       <r>  -25.3995    1.0000 </r>
       <r>  -25.3937    1.0000 </r>
       <r>  -25.3928    1.0000 </r>
       <r>   -3.5153    1.0000 </r>
       <r>    0.5968    1.0000 </r>
       <r>    1.8275    1.0000 </r>
       <r>    1.9871    1.0000 </r>
       <r>    2.8418    1.0000 </r>
       <r>    2.9650    1.0000 </r>
       <r>    3.0424    1.0000 </r>
       <r>    4.6162    1.0000 </r>
       <r>    5.0233    1.0000 </r>
       <r>    7.1513    0.0000 </r>
       <r>    7.9638    0.0000 </r>
       <r>    8.2005    0.0000 </r>
       <r>    8.4187    0.0000 </r>
      </set>
      <set comment="kpoint 54">
       <r>  -25.4003    1.0000 </r>
       <r>  -25.3937    1.0000 </r>
       <r>  -25.3929    1.0000 </r>
       <r>   -3.3675    1.0000 </r>
       <r>    0.4594    1.0000 </r>
       <r>    1.8359    1.0000 </r>
       <r>    1.9413    1.0000 </r>
       <r>    2.7324    1.0000 </r>
       <r>    2.9546    1.0000 </r>
       <r>    2.9960    1.0000 </r>
       <r>    4.6131    1.0000 </r>
       <r>    4.9592    1.0000 </r>
       <r>    7.2329    0.0000 </r>
       <r>    7.9046    0.0000 </r>
       <r>    8.1538    0.0000 </r>
       <r>    8.4975    0.0000 </r>
      </set>
      <set comment="kpoint 55">
       <r>  -25.3967    1.0000 </r>
       <r>  -25.3935    1.0000 </r>
       <r>  -25.3931    1.0000 </r>
       <r>   -3.9430    1.0000 </r>
       <r>    0.9176    1.0000 </r>
       <r>    2.0355    1.0000 </r>
       <r>    2.1557    1.0000 </r>
       <r>    2.7913    1.0000 </r>
       <r>    2.9597    1.0000 </r>
       <r>    3.8244    1.0000 </r>
       <r>    4.6817    1.0000 </r>
       <r>    5.0700    1.0000 </r>
       <r>    6.9705    1.0000 </r>
       <r>    7.3090    0.0000 </r>
       <r>    7.7874    0.0000 </r>
       <r>    8.9165    0.0000 </r>
      </set>
      <set comment="kpoint 56">
       <r>  -25.3980    1.0000 </r>
       <r>  -25.3939    1.0000 </r>
       <r>  -25.3931    1.0000 </r>
       <r>   -3.7257    1.0000 </r>
       <r>    0.7595    1.0000 </r>
       <r>    1.9717    1.0000 </r>
       <r>    2.1588    1.0000 </r>
       <r>    2.8334    1.0000 </r>
       <r>    2.9919    1.0000 </r>
       <r>    3.4412    1.0000 </r>
       <r>    4.4288    1.0000 </r>
       <r>    4.9544    1.0000 </r>
       <r>    7.1359    0.0000 </r>
       <r>    7.5579    0.0000 </r>
       <r>    7.8750    0.0000 </r>
       <r>    8.8699    0.0000 </r>
      </set>
      <set comment="kpoint 57">
       <r>  -25.3990    1.0000 </r>
       <r>  -25.3943    1.0000 </r>
       <r>  -25.3932    1.0000 </r>
       <r>   -3.5103    1.0000 </r>
       <r>    0.6526    1.0000 </r>
       <r>    1.8899    1.0000 </r>
       <r>    2.1203    1.0000 </r>
       <r>    2.8452    1.0000 </r>
       <r>    2.9754    1.0000 </r>
       <r>    3.1349    1.0000 </r>
       <r>    4.3078    1.0000 </r>
       <r>    4.8556    1.0000 </r>
       <r>    7.1361    0.0000 </r>
       <r>    7.8121    0.0000 </r>
       <r>    8.2665    0.0000 </r>
       <r>    8.4585    0.0000 </r>
      </set>
      <set comment="kpoint 58">
       <r>  -25.3997    1.0000 </r>
       <r>  -25.3946    1.0000 </r>
       <r>  -25.3932    1.0000 </r>
       <r>   -3.3544    1.0000 </r>
       <r>    0.5976    1.0000 </r>
       <r>    1.8163    1.0000 </r>
       <r>    2.0668    1.0000 </r>
       <r>    2.7049    1.0000 </r>
       <r>    2.9770    1.0000 </r>
       <r>    3.0735    1.0000 </r>
       <r>    4.2388    1.0000 </r>
       <r>    4.8154    1.0000 </r>
       <r>    7.1928    0.0000 </r>
       <r>    7.9240    0.0000 </r>
       <r>    8.1262    0.0000 </r>
       <r>    8.6322    0.0000 </r>
      </set>
      <set comment="kpoint 59">
       <r>  -25.3998    1.0000 </r>
       <r>  -25.3948    1.0000 </r>
       <r>  -25.3931    1.0000 </r>
       <r>   -3.3096    1.0000 </r>
       <r>    0.5889    1.0000 </r>
       <r>    1.7948    1.0000 </r>
       <r>    2.0143    1.0000 </r>
       <r>    2.6424    1.0000 </r>
       <r>    2.9947    1.0000 </r>
       <r>    3.0829    1.0000 </r>
       <r>    4.1929    1.0000 </r>
       <r>    4.8308    1.0000 </r>
       <r>    7.2989    0.0000 </r>
       <r>    7.7799    0.0000 </r>
       <r>    8.1729    0.0000 </r>
       <r>    8.7538    0.0000 </r>
      </set>
      <set comment="kpoint 60">
       <r>  -25.3993    1.0000 </r>
       <r>  -25.3949    1.0000 </r>
       <r>  -25.3930    1.0000 </r>
       <r>   -3.3930    1.0000 </r>
       <r>    0.6262    1.0000 </r>
       <r>    1.8243    1.0000 </r>
       <r>    1.9976    1.0000 </r>
       <r>    2.7192    1.0000 </r>
       <r>    3.0062    1.0000 </r>
       <r>    3.1223    1.0000 </r>
       <r>    4.1618    1.0000 </r>
       <r>    4.9014    1.0000 </r>
       <r>    7.3189    0.0000 </r>
       <r>    7.9091    0.0000 </r>
       <r>    8.1274    0.0000 </r>
       <r>    8.7130    0.0000 </r>
      </set>
      <set comment="kpoint 61">
       <r>  -25.3985    1.0000 </r>
       <r>  -25.3946    1.0000 </r>
       <r>  -25.3928    1.0000 </r>
       <r>   -3.5742    1.0000 </r>
       <r>    0.7182    1.0000 </r>
       <r>    1.8313    1.0000 </r>
       <r>    2.0570    1.0000 </r>
       <r>    2.8371    1.0000 </r>
       <r>    2.9964    1.0000 </r>
       <r>    3.2690    1.0000 </r>
       <r>    4.1683    1.0000 </r>
       <r>    5.0314    1.0000 </r>
       <r>    7.3349    0.0000 </r>
       <r>    7.8061    0.0000 </r>
       <r>    8.2767    0.0000 </r>
       <r>    8.6278    0.0000 </r>
      </set>
      <set comment="kpoint 62">
       <r>  -25.3975    1.0000 </r>
       <r>  -25.3941    1.0000 </r>
       <r>  -25.3927    1.0000 </r>
       <r>   -3.7963    1.0000 </r>
       <r>    0.8695    1.0000 </r>
       <r>    1.8363    1.0000 </r>
       <r>    2.1098    1.0000 </r>
       <r>    2.8671    1.0000 </r>
       <r>    2.9690    1.0000 </r>
       <r>    3.5440    1.0000 </r>
       <r>    4.3225    1.0000 </r>
       <r>    5.1965    1.0000 </r>
       <r>    7.3527    0.0000 </r>
       <r>    7.5714    0.0000 </r>
       <r>    7.9513    0.0000 </r>
       <r>    8.7519    0.0000 </r>
      </set>
      <set comment="kpoint 63">
       <r>  -25.3985    1.0000 </r>
       <r>  -25.3940    1.0000 </r>
       <r>  -25.3935    1.0000 </r>
       <r>   -3.6464    1.0000 </r>
       <r>    0.6740    1.0000 </r>
       <r>    2.1387    1.0000 </r>
       <r>    2.2691    1.0000 </r>
       <r>    2.7306    1.0000 </r>
       <r>    3.0642    1.0000 </r>
       <r>    3.3977    1.0000 </r>
       <r>    4.4040    1.0000 </r>
       <r>    4.7283    1.0000 </r>
       <r>    6.8930    1.0000 </r>
       <r>    7.4870    0.0000 </r>
       <r>    7.7223    0.0000 </r>
       <r>    8.8667    0.0000 </r>
      </set>
      <set comment="kpoint 64">
       <r>  -25.3992    1.0000 </r>
       <r>  -25.3945    1.0000 </r>
       <r>  -25.3936    1.0000 </r>
       <r>   -3.4713    1.0000 </r>
       <r>    0.6594    1.0000 </r>
       <r>    2.0238    1.0000 </r>
       <r>    2.2739    1.0000 </r>
       <r>    2.7998    1.0000 </r>
       <r>    2.9965    1.0000 </r>
       <r>    3.1642    1.0000 </r>
       <r>    4.1352    1.0000 </r>
       <r>    4.6725    1.0000 </r>
       <r>    6.9809    1.0000 </r>
       <r>    7.6005    0.0000 </r>
       <r>    8.1303    0.0000 </r>
       <r>    8.5012    0.0000 </r>
      </set>
      <set comment="kpoint 65">
       <r>  -25.3995    1.0000 </r>
       <r>  -25.3951    1.0000 </r>
       <r>  -25.3936    1.0000 </r>
       <r>   -3.3326    1.0000 </r>
       <r>    0.7138    1.0000 </r>
       <r>    1.8777    1.0000 </r>
       <r>    2.2307    1.0000 </r>
       <r>    2.6608    1.0000 </r>
       <r>    2.9807    1.0000 </r>
       <r>    3.1317    1.0000 </r>
       <r>    3.9382    1.0000 </r>
       <r>    4.6595    1.0000 </r>
       <r>    7.0403    1.0000 </r>
       <r>    7.8330    0.0000 </r>
       <r>    8.1025    0.0000 </r>
       <r>    8.5745    0.0000 </r>
      </set>
      <set comment="kpoint 66">
       <r>  -25.3993    1.0000 </r>
       <r>  -25.3958    1.0000 </r>
       <r>  -25.3934    1.0000 </r>
       <r>   -3.2677    1.0000 </r>
       <r>    0.7746    1.0000 </r>
       <r>    1.7598    1.0000 </r>
       <r>    2.1496    1.0000 </r>
       <r>    2.5276    1.0000 </r>
       <r>    3.0527    1.0000 </r>
       <r>    3.1564    1.0000 </r>
       <r>    3.8152    1.0000 </r>
       <r>    4.6877    1.0000 </r>
       <r>    7.1673    0.0000 </r>
       <r>    7.8325    0.0000 </r>
       <r>    8.1023    0.0000 </r>
       <r>    8.6104    0.0000 </r>
      </set>
      <set comment="kpoint 67">
       <r>  -25.3989    1.0000 </r>
       <r>  -25.3961    1.0000 </r>
       <r>  -25.3932    1.0000 </r>
       <r>   -3.2952    1.0000 </r>
       <r>    0.7585    1.0000 </r>
       <r>    1.7621    1.0000 </r>
       <r>    2.0598    1.0000 </r>
       <r>    2.5666    1.0000 </r>
       <r>    3.0640    1.0000 </r>
       <r>    3.2182    1.0000 </r>
       <r>    3.7780    1.0000 </r>
       <r>    4.7580    1.0000 </r>
       <r>    7.3377    0.0000 </r>
       <r>    7.7655    0.0000 </r>
       <r>    8.0943    0.0000 </r>
       <r>    8.6576    0.0000 </r>
      </set>
      <set comment="kpoint 68">
       <r>  -25.3986    1.0000 </r>
       <r>  -25.3957    1.0000 </r>
       <r>  -25.3930    1.0000 </r>
       <r>   -3.4078    1.0000 </r>
       <r>    0.7077    1.0000 </r>
       <r>    1.8259    1.0000 </r>
       <r>    2.0216    1.0000 </r>
       <r>    2.7099    1.0000 </r>
       <r>    3.0367    1.0000 </r>
       <r>    3.2597    1.0000 </r>
       <r>    3.8711    1.0000 </r>
       <r>    4.8786    1.0000 </r>
       <r>    7.3917    0.0000 </r>
       <r>    7.9011    0.0000 </r>
       <r>    8.0853    0.0000 </r>
       <r>    8.6615    0.0000 </r>
      </set>
      <set comment="kpoint 69">
       <r>  -25.3999    1.0000 </r>
       <r>  -25.3943    1.0000 </r>
       <r>  -25.3939    1.0000 </r>
       <r>   -3.4089    1.0000 </r>
       <r>    0.6708    1.0000 </r>
       <r>    2.1750    1.0000 </r>
       <r>    2.3919    1.0000 </r>
       <r>    2.6917    1.0000 </r>
       <r>    2.9015    1.0000 </r>
       <r>    3.1834    1.0000 </r>
       <r>    4.1848    1.0000 </r>
       <r>    4.5139    1.0000 </r>
       <r>    6.7755    1.0000 </r>
       <r>    7.4410    0.0000 </r>
       <r>    7.8561    0.0000 </r>
       <r>    8.5338    0.0000 </r>
      </set>
      <set comment="kpoint 70">
       <r>  -25.4000    1.0000 </r>
       <r>  -25.3949    1.0000 </r>
       <r>  -25.3939    1.0000 </r>
       <r>   -3.3065    1.0000 </r>
       <r>    0.7826    1.0000 </r>
       <r>    2.0172    1.0000 </r>
       <r>    2.3781    1.0000 </r>
       <r>    2.5876    1.0000 </r>
       <r>    2.8721    1.0000 </r>
       <r>    3.1828    1.0000 </r>
       <r>    3.8899    1.0000 </r>
       <r>    4.5281    1.0000 </r>
       <r>    6.8589    1.0000 </r>
       <r>    7.5424    0.0000 </r>
       <r>    8.1885    0.0000 </r>
       <r>    8.4586    0.0000 </r>
      </set>
      <set comment="kpoint 71">
       <r>  -25.3996    1.0000 </r>
       <r>  -25.3958    1.0000 </r>
       <r>  -25.3938    1.0000 </r>
       <r>   -3.2474    1.0000 </r>
       <r>    0.9071    1.0000 </r>
       <r>    1.8298    1.0000 </r>
       <r>    2.3043    1.0000 </r>
       <r>    2.4095    1.0000 </r>
       <r>    3.0607    1.0000 </r>
       <r>    3.1669    1.0000 </r>
       <r>    3.6540    1.0000 </r>
       <r>    4.5701    1.0000 </r>
       <r>    6.9702    1.0000 </r>
       <r>    7.8154    0.0000 </r>
       <r>    8.0311    0.0000 </r>
       <r>    8.4020    0.0000 </r>
      </set>
      <set comment="kpoint 72">
       <r>  -25.3990    1.0000 </r>
       <r>  -25.3965    1.0000 </r>
       <r>  -25.3935    1.0000 </r>
       <r>   -3.2433    1.0000 </r>
       <r>    0.9075    1.0000 </r>
       <r>    1.7171    1.0000 </r>
       <r>    2.1807    1.0000 </r>
       <r>    2.4290    1.0000 </r>
       <r>    3.1159    1.0000 </r>
       <r>    3.2422    1.0000 </r>
       <r>    3.5671    1.0000 </r>
       <r>    4.6434    1.0000 </r>
       <r>    7.1534    0.0000 </r>
       <r>    7.7939    0.0000 </r>
       <r>    8.1388    0.0000 </r>
       <r>    8.4549    0.0000 </r>
      </set>
      <set comment="kpoint 73">
       <r>  -25.4007    1.0000 </r>
       <r>  -25.3945    1.0000 </r>
       <r>  -25.3942    1.0000 </r>
       <r>   -3.2848    1.0000 </r>
       <r>    0.8238    1.0000 </r>
       <r>    2.1828    1.0000 </r>
       <r>    2.3910    1.0000 </r>
       <r>    2.5310    1.0000 </r>
       <r>    2.7186    1.0000 </r>
       <r>    3.2481    1.0000 </r>
       <r>    4.0500    1.0000 </r>
       <r>    4.4240    1.0000 </r>
       <r>    6.7088    1.0000 </r>
       <r>    7.3597    0.0000 </r>
       <r>    7.9084    0.0000 </r>
       <r>    8.4249    0.0000 </r>
      </set>
      <set comment="kpoint 74">
       <r>  -25.4003    1.0000 </r>
       <r>  -25.3951    1.0000 </r>
       <r>  -25.3941    1.0000 </r>
       <r>   -3.2524    1.0000 </r>
       <r>    0.9096    1.0000 </r>
       <r>    2.0108    1.0000 </r>
       <r>    2.3193    1.0000 </r>
       <r>    2.4694    1.0000 </r>
       <r>    2.8792    1.0000 </r>
       <r>    3.2154    1.0000 </r>
       <r>    3.7872    1.0000 </r>
       <r>    4.4874    1.0000 </r>
       <r>    6.8154    1.0000 </r>
       <r>    7.5056    0.0000 </r>
       <r>    8.2016    0.0000 </r>
       <r>    8.3689    0.0000 </r>
      </set>
      <set comment="kpoint 75">
       <r>  -25.3986    1.0000 </r>
       <r>  -25.3947    1.0000 </r>
       <r>  -25.3932    1.0000 </r>
       <r>   -3.5399    1.0000 </r>
       <r>    0.6907    1.0000 </r>
       <r>    1.9195    1.0000 </r>
       <r>    2.1735    1.0000 </r>
       <r>    2.8502    1.0000 </r>
       <r>    2.9740    1.0000 </r>
       <r>    3.2833    1.0000 </r>
       <r>    4.0723    1.0000 </r>
       <r>    4.8646    1.0000 </r>
       <r>    7.2611    0.0000 </r>
       <r>    7.5918    0.0000 </r>
       <r>    8.2392    0.0000 </r>
       <r>    8.5744    0.0000 </r>
      </set>
      <set comment="kpoint 76">
       <r>  -25.3990    1.0000 </r>
       <r>  -25.3953    1.0000 </r>
       <r>  -25.3933    1.0000 </r>
       <r>   -3.3779    1.0000 </r>
       <r>    0.7002    1.0000 </r>
       <r>    1.8326    1.0000 </r>
       <r>    2.1651    1.0000 </r>
       <r>    2.7290    1.0000 </r>
       <r>    2.9761    1.0000 </r>
       <r>    3.1902    1.0000 </r>
       <r>    3.8915    1.0000 </r>
       <r>    4.7782    1.0000 </r>
       <r>    7.2903    0.0000 </r>
       <r>    7.7435    0.0000 </r>
       <r>    8.0775    0.0000 </r>
       <r>    8.6456    0.0000 </r>
      </set>
      <set comment="kpoint 77">
       <r>  -25.3993    1.0000 </r>
       <r>  -25.3957    1.0000 </r>
       <r>  -25.3934    1.0000 </r>
       <r>   -3.2830    1.0000 </r>
       <r>    0.7460    1.0000 </r>
       <r>    1.7430    1.0000 </r>
       <r>    2.1646    1.0000 </r>
       <r>    2.5801    1.0000 </r>
       <r>    3.0002    1.0000 </r>
       <r>    3.1664    1.0000 </r>
       <r>    3.8161    1.0000 </r>
       <r>    4.7381    1.0000 </r>
[...]
       <r>    7.5573    0.0000 </r>
       <r>    8.1237    0.0000 </r>
       <r>    8.5292    0.0000 </r>
      </set>
      <set comment="kpoint 79">
       <r>  -25.3993    1.0000 </r>
       <r>  -25.3959    1.0000 </r>
       <r>  -25.3938    1.0000 </r>
       <r>   -3.2617    1.0000 </r>
       <r>    0.8725    1.0000 </r>
       <r>    1.7701    1.0000 </r>
       <r>    2.3303    1.0000 </r>
       <r>    2.5397    1.0000 </r>
       <r>    2.9764    1.0000 </r>
       <r>    3.1770    1.0000 </r>
       <r>    3.5587    1.0000 </r>
       <r>    4.6607    1.0000 </r>
       <r>    7.2103    0.0000 </r>
       <r>    7.7022    0.0000 </r>
       <r>    7.8518    0.0000 </r>
       <r>    8.4292    0.0000 </r>
      </set>
      <set comment="kpoint 80">
       <r>  -25.3989    1.0000 </r>
       <r>  -25.3964    1.0000 </r>
       <r>  -25.3937    1.0000 </r>
       <r>   -3.2379    1.0000 </r>
       <r>    0.9342    1.0000 </r>
       <r>    1.6825    1.0000 </r>
       <r>    2.2998    1.0000 </r>
       <r>    2.4580    1.0000 </r>
       <r>    3.0458    1.0000 </r>
       <r>    3.2230    1.0000 </r>
       <r>    3.4403    1.0000 </r>
       <r>    4.6799    1.0000 </r>
       <r>    7.3510    0.0000 </r>
       <r>    7.6522    0.0000 </r>
       <r>    7.8871    0.0000 </r>
       <r>    8.3277    0.0000 </r>
      </set>
      <set comment="kpoint 81">
       <r>  -25.3989    1.0000 </r>
       <r>  -25.3962    1.0000 </r>
       <r>  -25.3935    1.0000 </r>
       <r>   -3.2796    1.0000 </r>
       <r>    0.8309    1.0000 </r>
       <r>    1.7350    1.0000 </r>
       <r>    2.2332    1.0000 </r>
       <r>    2.5542    1.0000 </r>
       <r>    3.0231    1.0000 </r>
       <r>    3.2354    1.0000 </r>
       <r>    3.5715    1.0000 </r>
       <r>    4.7137    1.0000 </r>
       <r>    7.4169    0.0000 </r>
       <r>    7.6981    0.0000 </r>
       <r>    7.8137    0.0000 </r>
       <r>    8.5652    0.0000 </r>
      </set>
      <set comment="kpoint 82">
       <r>  -25.3998    1.0000 </r>
       <r>  -25.3954    1.0000 </r>
       <r>  -25.3941    1.0000 </r>
       <r>   -3.2498    1.0000 </r>
       <r>    0.9240    1.0000 </r>
       <r>    1.8810    1.0000 </r>
       <r>    2.3400    1.0000 </r>
       <r>    2.5807    1.0000 </r>
       <r>    2.8722    1.0000 </r>
       <r>    3.1751    1.0000 </r>
       <r>    3.5851    1.0000 </r>
       <r>    4.5880    1.0000 </r>
       <r>    7.0067    1.0000 </r>
       <r>    7.4800    0.0000 </r>
       <r>    8.0813    0.0000 </r>
       <r>    8.3347    0.0000 </r>
      </set>
      <set comment="kpoint 83">
       <r>  -25.3993    1.0000 </r>
       <r>  -25.3961    1.0000 </r>
       <r>  -25.3940    1.0000 </r>
       <r>   -3.2261    1.0000 </r>
       <r>    1.0133    1.0000 </r>
       <r>    1.7364    1.0000 </r>
       <r>    2.3058    1.0000 </r>
       <r>    2.5179    1.0000 </r>
       <r>    3.0248    1.0000 </r>
       <r>    3.1420    1.0000 </r>
       <r>    3.3868    1.0000 </r>
       <r>    4.6383    1.0000 </r>
       <r>    7.1730    0.0000 </r>
       <r>    7.6186    0.0000 </r>
       <r>    7.9309    0.0000 </r>
       <r>    8.1883    0.0000 </r>
      </set>
      <set comment="kpoint 84">
       <r>  -25.3989    1.0000 </r>
       <r>  -25.3964    1.0000 </r>
       <r>  -25.3940    1.0000 </r>
       <r>   -3.2233    1.0000 </r>
       <r>    1.0320    1.0000 </r>
       <r>    1.6760    1.0000 </r>
       <r>    2.3112    1.0000 </r>
       <r>    2.5762    1.0000 </r>
       <r>    2.9935    1.0000 </r>
       <r>    3.1567    1.0000 </r>
       <r>    3.2861    1.0000 </r>
       <r>    4.6769    1.0000 </r>
       <r>    7.4305    0.0000 </r>
       <r>    7.5931    0.0000 </r>
       <r>    7.7035    0.0000 </r>
       <r>    8.1758    0.0000 </r>
      </set>
     </set>
    </set>
   </array>
  </eigenvalues>
  <separator name="orbital magnetization" >
   <v name="MAGDIPOLOUT">      0.00000000      0.00000000      0.00000000</v>
  </separator>
  <dos>
   <i name="efermi">      7.10768365 </i>
   <total>
    <array>
     <dimension dim="1">gridpoints</dimension>
     <dimension dim="2">spin</dimension>
     <field>energy</field>
     <field>total</field>
     <field>integrated</field>
     <set>
      <set comment="spin 1">
       <r>   -27.1386     0.0000     0.0000 </r>
       <r>   -27.0111     0.0000     0.0000 </r>
       <r>   -26.8837     0.0000     0.0000 </r>
       <r>   -26.7563     0.0000     0.0000 </r>
       <r>   -26.6289     0.0000     0.0000 </r>
       <r>   -26.5015     0.0000     0.0000 </r>
       <r>   -26.3741     0.0000     0.0000 </r>
       <r>   -26.2466     0.0000     0.0000 </r>
       <r>   -26.1192     0.0000     0.0000 </r>
       <r>   -25.9918     0.0000     0.0000 </r>
       <r>   -25.8644     0.0000     0.0000 </r>
       <r>   -25.7370     0.0000     0.0000 </r>
       <r>   -25.6096     0.0000     0.0000 </r>
       <r>   -25.4821     0.0000     0.0000 </r>
       <r>   -25.3547    47.0894     6.0000 </r>
       <r>   -25.2273     0.0000     6.0000 </r>
       <r>   -25.0999     0.0000     6.0000 </r>
       <r>   -24.9725     0.0000     6.0000 </r>
       <r>   -24.8450     0.0000     6.0000 </r>
       <r>   -24.7176     0.0000     6.0000 </r>
       <r>   -24.5902     0.0000     6.0000 </r>
       <r>   -24.4628     0.0000     6.0000 </r>
       <r>   -24.3354     0.0000     6.0000 </r>
       <r>   -24.2080     0.0000     6.0000 </r>
       <r>   -24.0805     0.0000     6.0000 </r>
       <r>   -23.9531     0.0000     6.0000 </r>
       <r>   -23.8257     0.0000     6.0000 </r>
       <r>   -23.6983     0.0000     6.0000 </r>
       <r>   -23.5709     0.0000     6.0000 </r>
       <r>   -23.4435     0.0000     6.0000 </r>
       <r>   -23.3160     0.0000     6.0000 </r>
       <r>   -23.1886     0.0000     6.0000 </r>
       <r>   -23.0612     0.0000     6.0000 </r>
       <r>   -22.9338     0.0000     6.0000 </r>
       <r>   -22.8064     0.0000     6.0000 </r>
       <r>   -22.6790     0.0000     6.0000 </r>
       <r>   -22.5515     0.0000     6.0000 </r>
       <r>   -22.4241     0.0000     6.0000 </r>
       <r>   -22.2967     0.0000     6.0000 </r>
       <r>   -22.1693     0.0000     6.0000 </r>
       <r>   -22.0419     0.0000     6.0000 </r>
       <r>   -21.9145     0.0000     6.0000 </r>
       <r>   -21.7870     0.0000     6.0000 </r>
       <r>   -21.6596     0.0000     6.0000 </r>
       <r>   -21.5322     0.0000     6.0000 </r>
       <r>   -21.4048     0.0000     6.0000 </r>
       <r>   -21.2774     0.0000     6.0000 </r>
       <r>   -21.1499     0.0000     6.0000 </r>
       <r>   -21.0225     0.0000     6.0000 </r>
       <r>   -20.8951     0.0000     6.0000 </r>
       <r>   -20.7677     0.0000     6.0000 </r>
       <r>   -20.6403     0.0000     6.0000 </r>
       <r>   -20.5129     0.0000     6.0000 </r>
       <r>   -20.3854     0.0000     6.0000 </r>
       <r>   -20.2580     0.0000     6.0000 </r>
       <r>   -20.1306     0.0000     6.0000 </r>
       <r>   -20.0032     0.0000     6.0000 </r>
       <r>   -19.8758     0.0000     6.0000 </r>
       <r>   -19.7484     0.0000     6.0000 </r>
       <r>   -19.6209     0.0000     6.0000 </r>
       <r>   -19.4935     0.0000     6.0000 </r>
       <r>   -19.3661     0.0000     6.0000 </r>
       <r>   -19.2387     0.0000     6.0000 </r>
       <r>   -19.1113     0.0000     6.0000 </r>
       <r>   -18.9839     0.0000     6.0000 </r>
       <r>   -18.8564     0.0000     6.0000 </r>
       <r>   -18.7290     0.0000     6.0000 </r>
       <r>   -18.6016     0.0000     6.0000 </r>
       <r>   -18.4742     0.0000     6.0000 </r>
       <r>   -18.3468     0.0000     6.0000 </r>
       <r>   -18.2193     0.0000     6.0000 </r>
       <r>   -18.0919     0.0000     6.0000 </r>
       <r>   -17.9645     0.0000     6.0000 </r>
       <r>   -17.8371     0.0000     6.0000 </r>
       <r>   -17.7097     0.0000     6.0000 </r>
       <r>   -17.5823     0.0000     6.0000 </r>
       <r>   -17.4548     0.0000     6.0000 </r>
       <r>   -17.3274     0.0000     6.0000 </r>
       <r>   -17.2000     0.0000     6.0000 </r>
       <r>   -17.0726     0.0000     6.0000 </r>
       <r>   -16.9452     0.0000     6.0000 </r>
       <r>   -16.8178     0.0000     6.0000 </r>
       <r>   -16.6903     0.0000     6.0000 </r>
       <r>   -16.5629     0.0000     6.0000 </r>
       <r>   -16.4355     0.0000     6.0000 </r>
       <r>   -16.3081     0.0000     6.0000 </r>
       <r>   -16.1807     0.0000     6.0000 </r>
       <r>   -16.0533     0.0000     6.0000 </r>
       <r>   -15.9258     0.0000     6.0000 </r>
       <r>   -15.7984     0.0000     6.0000 </r>
       <r>   -15.6710     0.0000     6.0000 </r>
       <r>   -15.5436     0.0000     6.0000 </r>
       <r>   -15.4162     0.0000     6.0000 </r>
       <r>   -15.2888     0.0000     6.0000 </r>
       <r>   -15.1613     0.0000     6.0000 </r>
       <r>   -15.0339     0.0000     6.0000 </r>
       <r>   -14.9065     0.0000     6.0000 </r>
       <r>   -14.7791     0.0000     6.0000 </r>
       <r>   -14.6517     0.0000     6.0000 </r>
       <r>   -14.5242     0.0000     6.0000 </r>
       <r>   -14.3968     0.0000     6.0000 </r>
       <r>   -14.2694     0.0000     6.0000 </r>
       <r>   -14.1420     0.0000     6.0000 </r>
       <r>   -14.0146     0.0000     6.0000 </r>
       <r>   -13.8872     0.0000     6.0000 </r>
       <r>   -13.7597     0.0000     6.0000 </r>
       <r>   -13.6323     0.0000     6.0000 </r>
       <r>   -13.5049     0.0000     6.0000 </r>
       <r>   -13.3775     0.0000     6.0000 </r>
       <r>   -13.2501     0.0000     6.0000 </r>
       <r>   -13.1227     0.0000     6.0000 </r>
       <r>   -12.9952     0.0000     6.0000 </r>
       <r>   -12.8678     0.0000     6.0000 </r>
       <r>   -12.7404     0.0000     6.0000 </r>
       <r>   -12.6130     0.0000     6.0000 </r>
       <r>   -12.4856     0.0000     6.0000 </r>
       <r>   -12.3582     0.0000     6.0000 </r>
       <r>   -12.2307     0.0000     6.0000 </r>
       <r>   -12.1033     0.0000     6.0000 </r>
       <r>   -11.9759     0.0000     6.0000 </r>
       <r>   -11.8485     0.0000     6.0000 </r>
       <r>   -11.7211     0.0000     6.0000 </r>
       <r>   -11.5936     0.0000     6.0000 </r>
       <r>   -11.4662     0.0000     6.0000 </r>
       <r>   -11.3388     0.0000     6.0000 </r>
       <r>   -11.2114     0.0000     6.0000 </r>
       <r>   -11.0840     0.0000     6.0000 </r>
       <r>   -10.9566     0.0000     6.0000 </r>
       <r>   -10.8291     0.0000     6.0000 </r>
       <r>   -10.7017     0.0000     6.0000 </r>
       <r>   -10.5743     0.0000     6.0000 </r>
       <r>   -10.4469     0.0000     6.0000 </r>
       <r>   -10.3195     0.0000     6.0000 </r>
       <r>   -10.1921     0.0000     6.0000 </r>
       <r>   -10.0646     0.0000     6.0000 </r>
       <r>    -9.9372     0.0000     6.0000 </r>
       <r>    -9.8098     0.0000     6.0000 </r>
       <r>    -9.6824     0.0000     6.0000 </r>
       <r>    -9.5550     0.0000     6.0000 </r>
       <r>    -9.4276     0.0000     6.0000 </r>
       <r>    -9.3001     0.0000     6.0000 </r>
       <r>    -9.1727     0.0000     6.0000 </r>
       <r>    -9.0453     0.0000     6.0000 </r>
       <r>    -8.9179     0.0000     6.0000 </r>
       <r>    -8.7905     0.0000     6.0000 </r>
       <r>    -8.6631     0.0000     6.0000 </r>
       <r>    -8.5356     0.0000     6.0000 </r>
       <r>    -8.4082     0.0000     6.0000 </r>
       <r>    -8.2808     0.0000     6.0000 </r>
       <r>    -8.1534     0.0000     6.0000 </r>
       <r>    -8.0260     0.0000     6.0000 </r>
       <r>    -7.8985     0.0000     6.0000 </r>
       <r>    -7.7711     0.0000     6.0000 </r>
       <r>    -7.6437     0.0000     6.0000 </r>
       <r>    -7.5163     0.0000     6.0000 </r>
       <r>    -7.3889     0.0000     6.0000 </r>
       <r>    -7.2615     0.0000     6.0000 </r>
       <r>    -7.1340     0.0000     6.0000 </r>
       <r>    -7.0066     0.0000     6.0000 </r>
       <r>    -6.8792     0.0000     6.0000 </r>
       <r>    -6.7518     0.0000     6.0000 </r>
       <r>    -6.6244     0.0000     6.0000 </r>
       <r>    -6.4970     0.0000     6.0000 </r>
       <r>    -6.3695     0.0000     6.0000 </r>
       <r>    -6.2421     0.0000     6.0000 </r>
       <r>    -6.1147     0.0000     6.0000 </r>
       <r>    -5.9873     0.0000     6.0000 </r>
       <r>    -5.8599     0.0000     6.0000 </r>
       <r>    -5.7325     0.0000     6.0000 </r>
       <r>    -5.6050     0.0000     6.0000 </r>
       <r>    -5.4776     0.0000     6.0000 </r>
       <r>    -5.3502     0.0000     6.0000 </r>
       <r>    -5.2228     0.0000     6.0000 </r>
       <r>    -5.0954     0.0000     6.0000 </r>
       <r>    -4.9679     0.0000     6.0000 </r>
       <r>    -4.8405     0.0000     6.0000 </r>
       <r>    -4.7131     0.0000     6.0000 </r>
       <r>    -4.5857     0.0000     6.0000 </r>
       <r>    -4.4583     0.0998     6.0136 </r>
       <r>    -4.3309     0.3122     6.0534 </r>
       <r>    -4.2034     0.3834     6.1026 </r>
       <r>    -4.0760     0.2286     6.1538 </r>
       <r>    -3.9486     0.5942     6.2405 </r>
       <r>    -3.8212     0.4392     6.3136 </r>
       <r>    -3.6938     0.8641     6.4843 </r>
       <r>    -3.5664     1.0211     6.6408 </r>
       <r>    -3.4389     1.3173     6.8715 </r>
       <r>    -3.3115     2.7209     7.3908 </r>
       <r>    -3.1841     2.1433     8.0000 </r>
       <r>    -3.0567     0.0000     8.0000 </r>
       <r>    -2.9293     0.0000     8.0000 </r>
       <r>    -2.8019     0.0000     8.0000 </r>
       <r>    -2.6744     0.0000     8.0000 </r>
       <r>    -2.5470     0.0000     8.0000 </r>
       <r>    -2.4196     0.0000     8.0000 </r>
       <r>    -2.2922     0.0000     8.0000 </r>
       <r>    -2.1648     0.0000     8.0000 </r>
       <r>    -2.0373     0.0000     8.0000 </r>
       <r>    -1.9099     0.0000     8.0000 </r>
       <r>    -1.7825     0.0000     8.0000 </r>
       <r>    -1.6551     0.0000     8.0000 </r>
       <r>    -1.5277     0.0000     8.0000 </r>
       <r>    -1.4003     0.0000     8.0000 </r>
       <r>    -1.2728     0.0000     8.0000 </r>
       <r>    -1.1454     0.0000     8.0000 </r>
       <r>    -1.0180     0.0000     8.0000 </r>
       <r>    -0.8906     0.0000     8.0000 </r>
       <r>    -0.7632     0.0000     8.0000 </r>
       <r>    -0.6358     0.0000     8.0000 </r>
       <r>    -0.5083     0.0000     8.0000 </r>
       <r>    -0.3809     0.0000     8.0000 </r>
       <r>    -0.2535     0.0000     8.0000 </r>
       <r>    -0.1261     0.0000     8.0000 </r>
       <r>     0.0013     0.0000     8.0000 </r>
       <r>     0.1287     0.0000     8.0000 </r>
       <r>     0.2562     0.0000     8.0000 </r>
       <r>     0.3836     0.2271     8.0289 </r>
       <r>     0.5110     0.8520     8.1377 </r>
       <r>     0.6384     1.6805     8.3962 </r>
       <r>     0.7658     3.0208     9.0877 </r>
       <r>     0.8932     1.6827     9.4688 </r>
       <r>     1.0207     0.3269     9.7458 </r>
       <r>     1.1481     0.6871     9.8572 </r>
       <r>     1.2755     0.0065     9.8688 </r>
       <r>     1.4029     0.0429     9.9244 </r>
       <r>     1.5303     0.0001     9.9463 </r>
       <r>     1.6578     0.0581     9.9755 </r>
       <r>     1.7852     2.3466    10.3509 </r>
       <r>     1.9126     5.7278    11.5409 </r>
       <r>     2.0400     4.7024    12.3816 </r>
       <r>     2.1674     2.7662    13.1399 </r>
       <r>     2.2948     1.7992    13.5520 </r>
       <r>     2.4223     1.6001    14.0509 </r>
       <r>     2.5497     1.4103    14.3709 </r>
       <r>     2.6771     1.2483    14.7544 </r>
       <r>     2.8045     3.1941    15.4175 </r>
       <r>     2.9319     5.3135    16.5013 </r>
       <r>     3.0593     7.3727    18.0855 </r>
       <r>     3.1868     5.6088    19.0351 </r>
       <r>     3.3142     2.1675    19.5525 </r>
       <r>     3.4416     0.8878    19.6971 </r>
       <r>     3.5690     0.7004    19.8480 </r>
       <r>     3.6964     0.5144    20.0046 </r>
       <r>     3.8238     1.8525    20.2734 </r>
       <r>     3.9513     1.2558    20.4886 </r>
       <r>     4.0787     0.5923    20.6226 </r>
       <r>     4.2061     1.9602    20.9225 </r>
       <r>     4.3335     0.5570    21.1042 </r>
       <r>     4.4609     1.9583    21.3774 </r>
       <r>     4.5884     1.9188    21.6619 </r>
       <r>     4.7158     3.6871    22.2805 </r>
       <r>     4.8432     1.3729    22.6629 </r>
       <r>     4.9706     2.2505    23.1024 </r>
       <r>     5.0980     2.0232    23.4394 </r>
       <r>     5.2254     0.9469    23.6555 </r>
       <r>     5.3529     0.9431    23.8006 </r>
       <r>     5.4803     0.6911    23.8887 </r>
       <r>     5.6077     0.0998    23.9381 </r>
       <r>     5.7351     0.0858    23.9727 </r>
       <r>     5.8625     0.0214    24.0009 </r>
       <r>     5.9899     0.0000    24.0009 </r>
       <r>     6.1174     0.0000    24.0082 </r>
       <r>     6.2448     0.0130    24.0153 </r>
       <r>     6.3722     0.0012    24.0320 </r>
       <r>     6.4996     0.1000    24.0664 </r>
       <r>     6.6270     0.2859    24.1029 </r>
       <r>     6.7544     0.8731    24.2760 </r>
       <r>     6.8819     1.2567    24.4633 </r>
       <r>     7.0093     1.7688    24.7434 </r>
       <r>     7.1367     1.8082    25.1089 </r>
       <r>     7.2641     1.6456    25.5105 </r>
       <r>     7.3915     2.8375    26.0721 </r>
       <r>     7.5189     1.5899    26.3774 </r>
       <r>     7.6464     1.8000    26.7756 </r>
       <r>     7.7738     3.0651    27.2845 </r>
       <r>     7.9012     4.3334    28.2017 </r>
       <r>     8.0286     2.9299    28.8103 </r>
       <r>     8.1560     4.7759    29.5917 </r>
       <r>     8.2835     1.3823    30.0660 </r>
       <r>     8.4109     1.2155    30.3397 </r>
       <r>     8.5383     2.0357    30.7792 </r>
       <r>     8.6657     3.4592    31.3811 </r>
       <r>     8.7931     1.3297    31.6560 </r>
       <r>     8.9205     0.8090    31.8591 </r>
       <r>     9.0480     0.7347    31.9643 </r>
       <r>     9.1754     0.1715    31.9927 </r>
       <r>     9.3028     0.0000    31.9927 </r>
       <r>     9.4302     0.0000    32.0000 </r>
       <r>     9.5576     0.0000    32.0000 </r>
       <r>     9.6850     0.0000    32.0000 </r>
       <r>     9.8125     0.0000    32.0000 </r>
       <r>     9.9399     0.0000    32.0000 </r>
       <r>    10.0673     0.0000    32.0000 </r>
       <r>    10.1947     0.0000    32.0000 </r>
       <r>    10.3221     0.0000    32.0000 </r>
       <r>    10.4495     0.0000    32.0000 </r>
       <r>    10.5770     0.0000    32.0000 </r>
       <r>    10.7044     0.0000    32.0000 </r>
       <r>    10.8318     0.0000    32.0000 </r>
       <r>    10.9592     0.0000    32.0000 </r>
       <r>    11.0866     0.0000    32.0000 </r>
      </set>
     </set>
    </array>
   </total>
  </dos>
 </calculation>
 <structure name="finalpos" >
  <crystal>
   <varray name="basis" >
    <v>       0.00000000       3.33947886       3.33947886 </v>
    <v>       3.33947886       0.00000000       3.33947886 </v>
    <v>       3.33947886       3.33947886       0.00000000 </v>
   </varray>
   <i name="volume">     74.48453137 </i>
   <varray name="rec_basis" >
    <v>      -0.14972396       0.14972396       0.14972396 </v>
    <v>       0.14972396      -0.14972396       0.14972396 </v>
    <v>       0.14972396       0.14972396      -0.14972396 </v>
   </varray>
  </crystal>
  <varray name="positions" >
   <v>       0.75000000       0.75000000       0.75000000 </v>
   <v>       0.25000000       0.25000000       0.25000000 </v>
   <v>       0.00000000       0.00000000       0.00000000 </v>
  </varray>
 </structure>
</modeling>
