   2   2   0   0
  0.2731179E+02  0.4258909E-09  0.4258909E-09  0.4258909E-09  0.0000000E+00
  1.000000000000000E-004
  CAR 
 unknown system                          
     12.27480402     -9.46225250  301      2.50218569      1.00000000
     -9.462  0.0000E+00  0.0000E+00
     -9.390  0.0000E+00  0.0000E+00
     -9.317  0.0000E+00  0.0000E+00
     -9.245  0.0000E+00  0.0000E+00
     -9.172  0.0000E+00  0.0000E+00
     -9.100  0.0000E+00  0.0000E+00
     -9.028  0.0000E+00  0.0000E+00
     -8.955  0.0000E+00  0.0000E+00
     -8.883  0.0000E+00  0.0000E+00
     -8.810  0.0000E+00  0.0000E+00
     -8.738  0.0000E+00  0.0000E+00
     -8.665  0.0000E+00  0.0000E+00
     -8.593  0.0000E+00  0.0000E+00
     -8.520  0.0000E+00  0.0000E+00
     -8.448  0.1054E+00  0.1442E-02
     -8.375  0.2369E+00  0.1447E-01
     -8.303  0.3291E+00  0.3534E-01
     -8.230  0.4118E+00  0.6233E-01
     -8.158  0.4882E+00  0.9487E-01
     -8.086  0.5643E+00  0.1331E+00
     -8.013  0.6452E+00  0.1769E+00
     -7.941  0.7309E+00  0.2267E+00
     -7.868  0.8252E+00  0.2830E+00
     -7.796  0.9360E+00  0.3467E+00
     -7.723  0.1063E+01  0.4190E+00
     -7.651  0.1227E+01  0.5016E+00
     -7.578  0.1437E+01  0.5978E+00
     -7.506  0.1767E+01  0.7124E+00
     -7.433  0.2511E+01  0.8647E+00
     -7.361  0.2599E+01  0.1052E+01
     -7.289  0.2663E+01  0.1241E+01
     -7.216  0.2756E+01  0.1438E+01
     -7.144  0.2999E+01  0.1646E+01
     -7.071  0.3841E+01  0.1886E+01
     -6.999  0.0000E+00  0.2000E+01
     -6.926  0.0000E+00  0.2000E+01
     -6.854  0.0000E+00  0.2000E+01
     -6.781  0.0000E+00  0.2000E+01
     -6.709  0.0000E+00  0.2000E+01
     -6.636  0.0000E+00  0.2000E+01
     -6.564  0.0000E+00  0.2000E+01
     -6.492  0.0000E+00  0.2000E+01
     -6.419  0.0000E+00  0.2000E+01
     -6.347  0.0000E+00  0.2000E+01
     -6.274  0.0000E+00  0.2000E+01
     -6.202  0.0000E+00  0.2000E+01
     -6.129  0.0000E+00  0.2000E+01
     -6.057  0.0000E+00  0.2000E+01
     -5.984  0.0000E+00  0.2000E+01
     -5.912  0.0000E+00  0.2000E+01
     -5.839  0.0000E+00  0.2000E+01
     -5.767  0.0000E+00  0.2000E+01
     -5.694  0.0000E+00  0.2000E+01
     -5.622  0.0000E+00  0.2000E+01
     -5.550  0.0000E+00  0.2000E+01
     -5.477  0.0000E+00  0.2000E+01
     -5.405  0.0000E+00  0.2000E+01
     -5.332  0.0000E+00  0.2000E+01
     -5.260  0.0000E+00  0.2000E+01
     -5.187  0.0000E+00  0.2000E+01
     -5.115  0.0000E+00  0.2000E+01
     -5.042  0.0000E+00  0.2000E+01
     -4.970  0.0000E+00  0.2000E+01
     -4.897  0.0000E+00  0.2000E+01
     -4.825  0.0000E+00  0.2000E+01
     -4.753  0.0000E+00  0.2000E+01
     -4.680  0.0000E+00  0.2000E+01
     -4.608  0.0000E+00  0.2000E+01
     -4.535  0.0000E+00  0.2000E+01
     -4.463  0.0000E+00  0.2000E+01
     -4.390  0.0000E+00  0.2000E+01
     -4.318  0.0000E+00  0.2000E+01
     -4.245  0.0000E+00  0.2000E+01
     -4.173  0.0000E+00  0.2000E+01
     -4.100  0.0000E+00  0.2000E+01
     -4.028  0.0000E+00  0.2000E+01
     -3.956  0.0000E+00  0.2000E+01
     -3.883  0.0000E+00  0.2000E+01
     -3.811  0.0000E+00  0.2000E+01
     -3.738  0.0000E+00  0.2000E+01
     -3.666  0.0000E+00  0.2000E+01
     -3.593  0.0000E+00  0.2000E+01
     -3.521  0.0000E+00  0.2000E+01
     -3.448  0.0000E+00  0.2000E+01
     -3.376  0.0000E+00  0.2000E+01
     -3.303  0.0000E+00  0.2000E+01
     -3.231  0.0000E+00  0.2000E+01
     -3.159  0.0000E+00  0.2000E+01
     -3.086  0.0000E+00  0.2000E+01
     -3.014  0.0000E+00  0.2000E+01
     -2.941  0.0000E+00  0.2000E+01
     -2.869  0.0000E+00  0.2000E+01
     -2.796  0.0000E+00  0.2000E+01
     -2.724  0.0000E+00  0.2000E+01
     -2.651  0.0000E+00  0.2000E+01
     -2.579  0.0000E+00  0.2000E+01
     -2.506  0.0000E+00  0.2000E+01
     -2.434  0.0000E+00  0.2000E+01
     -2.361  0.6188E+00  0.2010E+01
     -2.289  0.1563E+01  0.2089E+01
     -2.217  0.3187E+01  0.2252E+01
     -2.144  0.4583E+01  0.2644E+01
     -2.072  0.2293E+01  0.2873E+01
     -1.999  0.1647E+01  0.3014E+01
     -1.927  0.1304E+01  0.3119E+01
     -1.854  0.1078E+01  0.3205E+01
     -1.782  0.9108E+00  0.3276E+01
     -1.709  0.8069E+00  0.3339E+01
     -1.637  0.7059E+00  0.3393E+01
     -1.564  0.6255E+00  0.3441E+01
     -1.492  0.5743E+00  0.3485E+01
     -1.420  0.5228E+00  0.3525E+01
     -1.347  0.4726E+00  0.3561E+01
     -1.275  0.4289E+00  0.3593E+01
     -1.202  0.4009E+00  0.3623E+01
     -1.130  0.3723E+00  0.3651E+01
     -1.057  0.3440E+00  0.3677E+01
     -0.985  0.3134E+00  0.3701E+01
     -0.912  0.2905E+00  0.3723E+01
     -0.840  0.2742E+00  0.3743E+01
     -0.767  0.2576E+00  0.3762E+01
     -0.695  0.2393E+00  0.3780E+01
     -0.623  0.2216E+00  0.3797E+01
     -0.550  0.2023E+00  0.3812E+01
     -0.478  0.1915E+00  0.3827E+01
     -0.405  0.1808E+00  0.3840E+01
     -0.333  0.5018E+00  0.3859E+01
     -0.260  0.1013E+01  0.3916E+01
     -0.188  0.1862E+01  0.4010E+01
     -0.115  0.1720E+01  0.4140E+01
     -0.043  0.1477E+01  0.4256E+01
      0.030  0.1391E+01  0.4360E+01
      0.102  0.1359E+01  0.4459E+01
      0.175  0.1300E+01  0.4557E+01
      0.247  0.1246E+01  0.4649E+01
      0.319  0.1368E+01  0.4746E+01
      0.392  0.1505E+01  0.4850E+01
      0.464  0.1534E+01  0.4959E+01
      0.537  0.1612E+01  0.5074E+01
      0.609  0.1847E+01  0.5200E+01
      0.682  0.2186E+01  0.5348E+01
      0.754  0.2138E+01  0.5506E+01
      0.827  0.2131E+01  0.5661E+01
      0.899  0.2068E+01  0.5812E+01
      0.972  0.2076E+01  0.5963E+01
      1.044  0.2041E+01  0.6112E+01
      1.116  0.2006E+01  0.6258E+01
      1.189  0.1995E+01  0.6403E+01
      1.261  0.1977E+01  0.6547E+01
      1.334  0.1955E+01  0.6690E+01
      1.406  0.1927E+01  0.6831E+01
      1.479  0.1903E+01  0.6969E+01
      1.551  0.1917E+01  0.7107E+01
      1.624  0.1917E+01  0.7246E+01
      1.696  0.1892E+01  0.7385E+01
      1.769  0.1548E+01  0.7515E+01
      1.841  0.1227E+01  0.7614E+01
      1.913  0.1049E+01  0.7697E+01
      1.986  0.8920E+00  0.7767E+01
      2.058  0.7645E+00  0.7827E+01
      2.131  0.6583E+00  0.7878E+01
      2.203  0.5410E+00  0.7922E+01
      2.276  0.4550E+00  0.7957E+01
      2.348  0.3048E+00  0.7985E+01
      2.421  0.7648E-01  0.7999E+01
      2.493  0.0000E+00  0.8000E+01
      2.566  0.0000E+00  0.8000E+01
      2.638  0.0000E+00  0.8000E+01
      2.710  0.0000E+00  0.8000E+01
      2.783  0.0000E+00  0.8000E+01
      2.855  0.0000E+00  0.8000E+01
      2.928  0.0000E+00  0.8000E+01
      3.000  0.0000E+00  0.8000E+01
      3.073  0.0000E+00  0.8000E+01
      3.145  0.7062E-06  0.8000E+01
      3.218  0.2331E-03  0.8000E+01
      3.290  0.8819E-03  0.8000E+01
      3.363  0.1947E-02  0.8000E+01
      3.435  0.3429E-02  0.8000E+01
      3.508  0.5326E-02  0.8001E+01
      3.580  0.8071E-02  0.8001E+01
      3.652  0.1106E-01  0.8002E+01
      3.725  0.1366E-01  0.8003E+01
      3.797  0.1641E-01  0.8004E+01
      3.870  0.1935E-01  0.8005E+01
      3.942  0.2271E-01  0.8007E+01
      4.015  0.5873E-01  0.8009E+01
      4.087  0.1230E+00  0.8016E+01
      4.160  0.1888E+00  0.8027E+01
      4.232  0.3107E+00  0.8045E+01
      4.305  0.4267E+00  0.8072E+01
      4.377  0.5753E+00  0.8108E+01
      4.449  0.7016E+00  0.8154E+01
      4.522  0.7828E+00  0.8209E+01
      4.594  0.8766E+00  0.8269E+01
      4.667  0.9776E+00  0.8336E+01
      4.739  0.1116E+01  0.8411E+01
      4.812  0.1288E+01  0.8499E+01
      4.884  0.1414E+01  0.8596E+01
      4.957  0.1623E+01  0.8706E+01
      5.029  0.2005E+01  0.8836E+01
      5.102  0.2297E+01  0.8993E+01
      5.174  0.2166E+01  0.9157E+01
      5.246  0.2095E+01  0.9312E+01
      5.319  0.1848E+01  0.9458E+01
      5.391  0.1648E+01  0.9582E+01
      5.464  0.1412E+01  0.9694E+01
      5.536  0.1176E+01  0.9788E+01
      5.609  0.1246E+01  0.9872E+01
      5.681  0.1239E+01  0.9961E+01
      5.754  0.1137E+01  0.1004E+02
      5.826  0.1043E+01  0.1013E+02
      5.899  0.9538E+00  0.1020E+02
      5.971  0.9736E+00  0.1027E+02
      6.044  0.8976E+00  0.1034E+02
      6.116  0.8756E+00  0.1040E+02
      6.188  0.8666E+00  0.1046E+02
      6.261  0.8870E+00  0.1053E+02
      6.333  0.9267E+00  0.1059E+02
      6.406  0.9792E+00  0.1066E+02
      6.478  0.1072E+01  0.1073E+02
      6.551  0.1253E+01  0.1082E+02
      6.623  0.1988E+01  0.1093E+02
      6.696  0.2550E+01  0.1111E+02
      6.768  0.2536E+01  0.1130E+02
      6.841  0.2195E+01  0.1147E+02
      6.913  0.2026E+01  0.1163E+02
      6.985  0.1702E+01  0.1176E+02
      7.058  0.1514E+01  0.1188E+02
      7.130  0.1504E+01  0.1199E+02
      7.203  0.1346E+01  0.1209E+02
      7.275  0.1212E+01  0.1218E+02
      7.348  0.1154E+01  0.1227E+02
      7.420  0.1294E+01  0.1236E+02
      7.493  0.1498E+01  0.1246E+02
      7.565  0.1787E+01  0.1258E+02
      7.638  0.2206E+01  0.1272E+02
      7.710  0.2440E+01  0.1289E+02
      7.782  0.2218E+01  0.1306E+02
      7.855  0.2093E+01  0.1322E+02
      7.927  0.1804E+01  0.1336E+02
      8.000  0.1660E+01  0.1348E+02
      8.072  0.1496E+01  0.1359E+02
      8.145  0.1473E+01  0.1370E+02
      8.217  0.1434E+01  0.1381E+02
      8.290  0.1471E+01  0.1391E+02
      8.362  0.1472E+01  0.1402E+02
      8.435  0.1188E+01  0.1412E+02
      8.507  0.1011E+01  0.1419E+02
      8.580  0.9769E+00  0.1427E+02
      8.652  0.1004E+01  0.1434E+02
      8.724  0.1032E+01  0.1441E+02
      8.797  0.1077E+01  0.1449E+02
      8.869  0.1140E+01  0.1457E+02
      8.942  0.1123E+01  0.1465E+02
      9.014  0.1136E+01  0.1473E+02
      9.087  0.1203E+01  0.1482E+02
      9.159  0.1270E+01  0.1491E+02
      9.232  0.1353E+01  0.1500E+02
      9.304  0.1392E+01  0.1510E+02
      9.377  0.1249E+01  0.1520E+02
      9.449  0.1243E+01  0.1529E+02
      9.521  0.1095E+01  0.1537E+02
      9.594  0.8861E+00  0.1544E+02
      9.666  0.8107E+00  0.1550E+02
      9.739  0.7851E+00  0.1556E+02
      9.811  0.1086E+01  0.1563E+02
      9.884  0.4690E+00  0.1567E+02
      9.956  0.4372E+00  0.1570E+02
     10.029  0.4048E+00  0.1573E+02
     10.101  0.3735E+00  0.1576E+02
     10.174  0.3713E+00  0.1579E+02
     10.246  0.3533E+00  0.1581E+02
     10.318  0.3145E+00  0.1584E+02
     10.391  0.2820E+00  0.1586E+02
     10.463  0.2541E+00  0.1588E+02
     10.536  0.2306E+00  0.1590E+02
     10.608  0.2153E+00  0.1591E+02
     10.681  0.1952E+00  0.1593E+02
     10.753  0.1807E+00  0.1594E+02
     10.826  0.1708E+00  0.1595E+02
     10.898  0.1500E+00  0.1597E+02
     10.971  0.1253E+00  0.1598E+02
     11.043  0.9534E-01  0.1598E+02
     11.115  0.7096E-01  0.1599E+02
     11.188  0.5210E-01  0.1599E+02
     11.260  0.5204E-01  0.1600E+02
     11.333  0.0000E+00  0.1600E+02
     11.405  0.0000E+00  0.1600E+02
     11.478  0.0000E+00  0.1600E+02
     11.550  0.0000E+00  0.1600E+02
     11.623  0.0000E+00  0.1600E+02
     11.695  0.0000E+00  0.1600E+02
     11.768  0.0000E+00  0.1600E+02
     11.840  0.0000E+00  0.1600E+02
     11.913  0.0000E+00  0.1600E+02
     11.985  0.0000E+00  0.1600E+02
     12.057  0.0000E+00  0.1600E+02
     12.130  0.0000E+00  0.1600E+02
     12.202  0.0000E+00  0.1600E+02
     12.275  0.0000E+00  0.1600E+02
