    2    2    1    1
  0.2731179E+02  0.4258909E-09  0.4258909E-09  0.4258909E-09  0.0000000E+00
  1.000000000000000E-004
  CAR 
 unknown system                          
      8    220      8
 
  0.0000000E+00  0.0000000E+00  0.0000000E+00  0.1457938E-03
    1       -8.474204   1.000000
    2        2.443920   1.000000
    3        2.443920   1.000000
    4        2.443920   1.000000
    5        3.141020   0.000000
    6        6.417654   0.000000
    7        6.417654   0.000000
    8        6.417654   0.000000
 
  0.5263158E-01  0.0000000E+00  0.0000000E+00  0.1166351E-02
    1       -8.452936   1.000000
    2        1.972349   1.000000
    3        2.418083   1.000000
    4        2.418084   1.000000
    5        3.547344   0.000000
    6        6.431260   0.000000
    7        6.464733   0.000000
    8        6.464734   0.000000
 
  0.1052632E+00  0.0000000E+00  0.0000000E+00  0.1166351E-02
    1       -8.389996   1.000000
    2        1.254676   1.000000
    3        2.346699   1.000000
    4        2.346700   1.000000
    5        4.033338   0.000000
    6        6.535826   0.000000
    7        6.592206   0.000000
    8        6.592206   0.000000
 
  0.1578947E+00  0.0000000E+00  0.0000000E+00  0.1166351E-02
    1       -8.288371   1.000000
    2        0.526178   1.000000
    3        2.244788   1.000000
    4        2.244788   1.000000
    5        4.300444   0.000000
    6        6.761631   0.000000
    7        6.761631   0.000000
    8        6.852656   0.000000
 
  0.2105263E+00  0.0000000E+00  0.0000000E+00  0.1166351E-02
    1       -8.153407   1.000000
    2       -0.172758   1.000000
    3        2.129626   1.000000
    4        2.129626   1.000000
    5        4.345037   0.000000
    6        6.919174   0.000000
    7        6.919174   0.000000
    8        7.396951   0.000000
 
  0.2631579E+00  0.0000000E+00  0.0000000E+00  0.1166351E-02
    1       -7.993826   1.000000
    2       -0.817907   1.000000
    3        2.016085   1.000000
    4        2.016085   1.000000
    5        4.271056   0.000000
    6        7.017108   0.000000
    7        7.017108   0.000000
    8        8.070973   0.000000
 
  0.3157895E+00  0.0000000E+00  0.0000000E+00  0.1166351E-02
    1       -7.822724   1.000000
    2       -1.386511   1.000000
    3        1.915172   1.000000
    4        1.915172   1.000000
    5        4.161863   0.000000
    6        7.042452   0.000000
    7        7.042452   0.000000
    8        8.765893   0.000000
 
  0.3684211E+00  0.0000000E+00  0.0000000E+00  0.1166351E-02
    1       -7.658898   1.000000
    2       -1.853389   1.000000
    3        1.834310   1.000000
    4        1.834310   1.000000
    5        4.059760   0.000000
    6        7.019404   0.000000
    7        7.019404   0.000000
    8        9.346974   0.000000
 
  0.4210526E+00  0.0000000E+00  0.0000000E+00  0.1166351E-02
    1       -7.526599   1.000000
    2       -2.189922   1.000000
    3        1.778189   1.000000
    4        1.778189   1.000000
    5        3.984469   0.000000
    6        6.982780   0.000000
    7        6.982781   0.000000
    8        9.665187   0.000000
 
  0.4736842E+00  0.0000000E+00  0.0000000E+00  0.1166351E-02
    1       -7.451589   1.000000
    2       -2.367693   1.000000
    3        1.749517   1.000000
    4        1.749518   1.000000
    5        3.945035   0.000000
    6        6.958267   0.000000
    7        6.958267   0.000000
    8        9.762916   0.000000
 
  0.5263158E-01  0.5263158E-01  0.0000000E+00  0.8747631E-03
    1       -8.445833   1.000000
    2        1.924586   1.000000
    3        2.362292   1.000000
    4        2.362292   1.000000
    5        3.675496   0.000000
    6        6.299290   0.000000
    7        6.546232   0.000000
    8        6.546232   0.000000
 
  0.1052632E+00  0.5263158E-01  0.0000000E+00  0.3499052E-02
    1       -8.396739   1.000000
    2        1.383025   1.000000
    3        2.266237   1.000000
    4        2.308816   1.000000
    5        4.100616   0.000000
    6        6.236045   0.000000
    7        6.705915   0.000000
    8        6.709575   0.000000
 
  0.1578947E+00  0.5263158E-01  0.0000000E+00  0.3499052E-02
    1       -8.307931   1.000000
    2        0.707149   1.000000
    3        2.147824   1.000000
    4        2.234009   1.000000
    5        4.428468   0.000000
    6        6.308906   0.000000
    7        6.904657   0.000000
    8        6.972091   0.000000
 
  0.2105263E+00  0.5263158E-01  0.0000000E+00  0.3499052E-02
    1       -8.183865   1.000000
    2        0.023805   1.000000
    3        2.024722   1.000000
    4        2.124100   1.000000
    5        4.540105   0.000000
    6        6.515923   0.000000
    7        7.089080   0.000000
    8        7.353353   0.000000
 
  0.2631579E+00  0.5263158E-01  0.0000000E+00  0.3499052E-02
    1       -8.032064   1.000000
    2       -0.624530   1.000000
    3        1.910984   1.000000
    4        1.996212   1.000000
    5        4.498578   0.000000
    6        6.726545   0.000000
    7        7.207882   0.000000
    8        7.852284   0.000000
 
  0.3157895E+00  0.5263158E-01  0.0000000E+00  0.3499052E-02
    1       -7.863971   1.000000
    2       -1.209910   1.000000
    3        1.816458   1.000000
    4        1.867318   1.000000
    5        4.399299   0.000000
    6        6.842217   0.000000
    7        7.239904   0.000000
    8        8.433164   0.000000
 
  0.3684211E+00  0.5263158E-01  0.0000000E+00  0.3499052E-02
    1       -7.696365   1.000000
    2       -1.705922   1.000000
    3        1.747411   1.000000
    4        1.750183   1.000000
    5        4.295904   0.000000
    6        6.873645   0.000000
    7        7.204819   0.000000
    8        9.024821   0.000000
 
  0.4210526E+00  0.5263158E-01  0.0000000E+00  0.3499052E-02
    1       -7.551690   1.000000
    2       -2.083941   1.000000
    3        1.653604   1.000000
    4        1.707388   1.000000
    5        4.213119   0.000000
    6        6.870524   0.000000
    7        7.140092   0.000000
    8        9.508346   0.000000
 
  0.4736842E+00  0.5263158E-01  0.0000000E+00  0.3499052E-02
    1       -7.455797   1.000000
    2       -2.314356   1.000000
    3        1.583431   1.000000
    4        1.697886   1.000000
    5        4.162312   0.000000
    6        6.871334   0.000000
    7        7.077017   0.000000
    8        9.764054   0.000000
 
 -0.4736842E+00  0.5263158E-01  0.0000000E+00  0.3499052E-02
    1       -7.430060   1.000000
    2       -2.373743   1.000000
    3        1.543445   1.000000
    4        1.718821   1.000000
    5        4.148393   0.000000
    6        6.895452   0.000000
    7        7.033529   0.000000
    8        9.824299   0.000000
 
 -0.4210526E+00  0.5263158E-01  0.0000000E+00  0.3499052E-02
    1       -7.480948   1.000000
    2       -2.255201   1.000000
    3        1.535906   1.000000
    4        1.768738   1.000000
    5        4.172498   0.000000
    6        6.946828   0.000000
    7        7.014760   0.000000
    8        9.733277   0.000000
 
 -0.3684211E+00  0.5263158E-01  0.0000000E+00  0.3499052E-02
    1       -7.595995   1.000000
    2       -1.972207   1.000000
    3        1.561786   1.000000
    4        1.844821   1.000000
    5        4.232425   0.000000
    6        7.013550   0.000000
    7        7.015602   0.000000
    8        9.421631   0.000000
 
 -0.3157895E+00  0.5263158E-01  0.0000000E+00  0.3499052E-02
    1       -7.751156   1.000000
    2       -1.551512   1.000000
    3        1.620745   1.000000
    4        1.942636   1.000000
    5        4.321412   0.000000
    6        7.009593   0.000000
    7        7.075187   0.000000
    8        8.881527   0.000000
 
 -0.2631579E+00  0.5263158E-01  0.0000000E+00  0.3499052E-02
    1       -7.921147   1.000000
    2       -1.023148   1.000000
    3        1.710899   1.000000
    4        2.055615   1.000000
    5        4.424066   0.000000
    6        6.971869   0.000000
    7        7.075556   0.000000
    8        8.258283   0.000000
 
 -0.2105263E+00  0.5263158E-01  0.0000000E+00  0.3499052E-02
    1       -8.085361   1.000000
    2       -0.415393   1.000000
    3        1.828386   1.000000
    4        2.174337   1.000000
    5        4.506679   0.000000
    6        6.875398   0.000000
    7        6.944303   0.000000
    8        7.696943   0.000000
 
 -0.1578947E+00  0.5263158E-01  0.0000000E+00  0.3499052E-02
    1       -8.228930   1.000000
    2        0.244182   1.000000
    3        1.966974   1.000000
    4        2.285871   1.000000
    5        4.499224   0.000000
    6        6.672380   0.000000
    7        6.729175   0.000000
    8        7.281563   0.000000
 
 -0.1052632E+00  0.5263158E-01  0.0000000E+00  0.3499052E-02
    1       -8.341855   1.000000
    2        0.921767   1.000000
    3        2.118561   1.000000
    4        2.374001   1.000000
    5        4.302583   0.000000
    6        6.445702   0.000000
    7        6.579086   0.000000
    8        6.957665   0.000000
 
 -0.5263158E-01  0.5263158E-01  0.0000000E+00  0.1749526E-02
    1       -8.417748   1.000000
    2        1.553303   1.000000
    3        2.277634   1.000000
    4        2.421921   1.000000
    5        3.909940   0.000000
    6        6.388679   0.000000
    7        6.478822   0.000000
    8        6.677956   0.000000
 
  0.1052632E+00  0.1052632E+00  0.0000000E+00  0.8747631E-03
    1       -8.361778   1.000000
    2        1.194250   1.000000
    3        2.148708   1.000000
    4        2.148708   1.000000
    5        4.432913   0.000000
    6        6.003845   0.000000
    7        6.899706   0.000000
    8        6.899706   0.000000
 
  0.1578947E+00  0.1052632E+00  0.0000000E+00  0.3499052E-02
    1       -8.286688   1.000000
    2        0.714958   1.000000
    3        2.014235   1.000000
    4        2.040975   1.000000
    5        4.774000   0.000000
    6        5.903015   0.000000
    7        7.134599   0.000000
    8        7.158655   0.000000
 
  0.2105263E+00  0.1052632E+00  0.0000000E+00  0.3499052E-02
    1       -8.175179   1.000000
    2        0.123726   1.000000
    3        1.880929   1.000000
    4        1.923277   1.000000
    5        4.954793   0.000000
    6        5.991656   0.000000
    7        7.358322   0.000000
    8        7.458681   0.000000
 
  0.2631579E+00  0.1052632E+00  0.0000000E+00  0.3499052E-02
    1       -8.033693   1.000000
    2       -0.480603   1.000000
    3        1.762538   1.000000
    4        1.774896   1.000000
    5        4.949094   0.000000
    6        6.249118   0.000000
    7        7.515811   0.000000
    8        7.723834   0.000000
 
  0.3157895E+00  0.1052632E+00  0.0000000E+00  0.3499052E-02
    1       -7.872199   1.000000
    2       -1.050138   1.000000
    3        1.611609   1.000000
    4        1.668417   1.000000
    5        4.860314   0.000000
    6        6.511728   0.000000
    7        7.574772   0.000000
    8        7.992331   0.000000
 
  0.3684211E+00  0.1052632E+00  0.0000000E+00  0.3499052E-02
    1       -7.705491   1.000000
    2       -1.551072   1.000000
    3        1.452429   1.000000
    4        1.604385   1.000000
    5        4.758135   0.000000
    6        6.658432   0.000000
    7        7.545942   0.000000
    8        8.394192   0.000000
 
  0.4210526E+00  0.1052632E+00  0.0000000E+00  0.3499052E-02
    1       -7.553845   1.000000
    2       -1.952115   1.000000
    3        1.311626   1.000000
    4        1.573551   1.000000
    5        4.671460   0.000000
    6        6.707498   0.000000
    7        7.467270   0.000000
    8        8.928090   0.000000
 
  0.4736842E+00  0.1052632E+00  0.0000000E+00  0.3499052E-02
    1       -7.441915   1.000000
    2       -2.222051   1.000000
    3        1.198839   1.000000
    4        1.576915   1.000000
    5        4.613052   0.000000
    6        6.728877   0.000000
    7        7.375533   0.000000
    8        9.468991   0.000000
 
 -0.4736842E+00  0.1052632E+00  0.0000000E+00  0.3499052E-02
    1       -7.392853   1.000000
    2       -2.334110   1.000000
    3        1.120532   1.000000
    4        1.613723   1.000000
    5        4.588619   0.000000
    6        6.764453   0.000000
    7        7.294297   0.000000
    8        9.815574   0.000000
 
 -0.4210526E+00  0.1052632E+00  0.0000000E+00  0.3499052E-02
    1       -7.418480   1.000000
    2       -2.275291   1.000000
    3        1.081163   1.000000
    4        1.681609   1.000000
    5        4.599823   0.000000
    6        6.828789   0.000000
    7        7.233443   0.000000
    8        9.796907   0.000000
 
 -0.3684211E+00  0.1052632E+00  0.0000000E+00  0.3499052E-02
    1       -7.512454   1.000000
    2       -2.052998   1.000000
    3        1.083949   1.000000
    4        1.776502   1.000000
    5        4.644900   0.000000
    6        6.917975   0.000000
    7        7.190133   0.000000
    8        9.419391   0.000000
 
 -0.3157895E+00  0.1052632E+00  0.0000000E+00  0.3499052E-02
    1       -7.654118   1.000000
    2       -1.691601   1.000000
    3        1.131391   1.000000
    4        1.892335   1.000000
    5        4.717661   0.000000
    6        7.007325   0.000000
    7        7.148269   0.000000
    8        8.848393   0.000000
 
 -0.2631579E+00  0.1052632E+00  0.0000000E+00  0.3499052E-02
    1       -7.818413   1.000000
    2       -1.223397   1.000000
    3        1.225703   1.000000
    4        2.020486   1.000000
    5        4.803578   0.000000
    6        7.032862   0.000000
    7        7.080351   0.000000
    8        8.281330   0.000000
 
 -0.2105263E+00  0.1052632E+00  0.0000000E+00  0.3499052E-02
    1       -7.983400   1.000000
    2       -0.683187   1.000000
    3        1.369494   1.000000
    4        2.149102   1.000000
    5        4.869701   0.000000
    6        6.884972   0.000000
    7        6.963394   0.000000
    8        7.878009   0.000000
 
 -0.1578947E+00  0.1052632E+00  0.0000000E+00  0.3499052E-02
    1       -8.132568   1.000000
    2       -0.109944   1.000000
    3        1.566668   1.000000
    4        2.262698   1.000000
    5        4.845931   0.000000
    6        6.606360   0.000000
    7        6.807993   0.000000
    8        7.620301   0.000000
 
 -0.1052632E+00  0.1052632E+00  0.0000000E+00  0.1749526E-02
    1       -8.254542   1.000000
    2        0.446389   1.000000
    3        1.821349   1.000000
    4        2.343214   1.000000
    5        4.644904   0.000000
    6        6.435431   0.000000
    7        6.662008   0.000000
    8        7.327660   0.000000
 
  0.1578947E+00  0.1578947E+00  0.0000000E+00  0.8747631E-03
    1       -8.225613   1.000000
    2        0.480367   1.000000
    3        1.865977   1.000000
    4        1.865978   1.000000
    5        5.107629   0.000000
    6        5.645137   0.000000
    7        7.412504   0.000000
    8        7.412504   0.000000
 
  0.2105263E+00  0.1578947E+00  0.0000000E+00  0.3499052E-02
    1       -8.127725   1.000000
    2        0.057233   1.000000
    3        1.720583   1.000000
    4        1.721905   1.000000
    5        5.299605   0.000000
    6        5.587386   0.000000
    7        7.681565   0.000000
    8        7.687508   0.000000
 
  0.2631579E+00  0.1578947E+00  0.0000000E+00  0.3499052E-02
    1       -7.998516   1.000000
    2       -0.445416   1.000000
    3        1.550071   1.000000
    4        1.595947   1.000000
    5        5.283609   0.000000
    6        5.799375   0.000000
    7        7.784534   0.000000
    8        7.901479   0.000000
 
  0.3157895E+00  0.1578947E+00  0.0000000E+00  0.3499052E-02
    1       -7.846691   1.000000
    2       -0.955356   1.000000
    3        1.350359   1.000000
    4        1.497514   1.000000
    5        5.196402   0.000000
    6        6.141298   0.000000
    7        7.764195   0.000000
    8        8.009383   0.000000
 
  0.3684211E+00  0.1578947E+00  0.0000000E+00  0.3499052E-02
    1       -7.685238   1.000000
    2       -1.426869   1.000000
    3        1.143839   1.000000
    4        1.432429   1.000000
    5        5.102274   0.000000
    6        6.477932   0.000000
    7        7.837982   0.000000
    8        8.007951   0.000000
 
  0.4210526E+00  0.1578947E+00  0.0000000E+00  0.3499052E-02
    1       -7.532185   1.000000
    2       -1.823430   1.000000
    3        0.952323   1.000000
    4        1.403819   1.000000
    5        5.024292   0.000000
    6        6.676173   0.000000
    7        7.932271   0.000000
    8        8.167620   0.000000
 
  0.4736842E+00  0.1578947E+00  0.0000000E+00  0.3499052E-02
    1       -7.410193   1.000000
    2       -2.111351   1.000000
    3        0.790992   1.000000
    4        1.412671   1.000000
    5        4.975099   0.000000
    6        6.745804   0.000000
    7        7.824434   0.000000
    8        8.724397   0.000000
 
 -0.4736842E+00  0.1578947E+00  0.0000000E+00  0.3499052E-02
    1       -7.342420   1.000000
    2       -2.261275   1.000000
    3        0.669868   1.000000
    4        1.458112   1.000000
    5        4.960479   0.000000
    6        6.781444   0.000000
    7        7.714115   0.000000
    8        9.340237   0.000000
 
 -0.4210526E+00  0.1578947E+00  0.0000000E+00  0.3499052E-02
    1       -7.344175   1.000000
    2       -2.255519   1.000000
    3        0.596161   1.000000
    4        1.537476   1.000000
    5        4.981115   0.000000
    6        6.832689   0.000000
    7        7.615664   0.000000
    8        9.686370   0.000000
 
 -0.3684211E+00  0.1578947E+00  0.0000000E+00  0.3499052E-02
    1       -7.414983   1.000000
    2       -2.095943   1.000000
    3        0.576037   1.000000
    4        1.646104   1.000000
    5        5.033193   0.000000
    6        6.912301   0.000000
    7        7.529198   0.000000
    8        9.372325   0.000000
 
 -0.3157895E+00  0.1578947E+00  0.0000000E+00  0.3499052E-02
    1       -7.538874   1.000000
    2       -1.804352   1.000000
    3        0.616138   1.000000
    4        1.776933   1.000000
    5        5.107303   0.000000
    6        7.007501   0.000000
    7        7.440447   0.000000
    8        8.762111   0.000000
 
 -0.2631579E+00  0.1578947E+00  0.0000000E+00  0.3499052E-02
    1       -7.692605   1.000000
    2       -1.415955   1.000000
    3        0.725104   1.000000
    4        1.919824   1.000000
    5        5.183492   0.000000
    6        7.059458   0.000000
    7        7.323489   0.000000
    8        8.186966   0.000000
 
 -0.2105263E+00  0.1578947E+00  0.0000000E+00  0.3499052E-02
    1       -7.853775   1.000000
    2       -0.973560   1.000000
    3        0.914664   1.000000
    4        2.060808   1.000000
    5        5.217367   0.000000
    6        6.932629   0.000000
    7        7.159826   0.000000
    8        7.865071   0.000000
 
 -0.1578947E+00  0.1578947E+00  0.0000000E+00  0.1749526E-02
    1       -8.004672   1.000000
    2       -0.524072   1.000000
    3        1.196704   1.000000
    4        2.181885   1.000000
    5        5.123180   0.000000
    6        6.695213   0.000000
    7        6.969525   0.000000
    8        7.771268   0.000000
 
  0.2105263E+00  0.2105263E+00  0.0000000E+00  0.8747631E-03
    1       -8.043877   1.000000
    2       -0.194078   1.000000
    3        1.567595   1.000000
    4        1.567595   1.000000
    5        5.209964   0.000000
    6        5.607648   0.000000
    7        8.027161   0.000000
    8        8.027161   0.000000
 
  0.2631579E+00  0.2105263E+00  0.0000000E+00  0.3499052E-02
    1       -7.928335   1.000000
    2       -0.565054   1.000000
    3        1.403082   1.000000
    4        1.432599   1.000000
    5        5.123140   0.000000
    6        5.685753   0.000000
    7        8.164468   0.000000
    8        8.317379   0.000000
 
  0.3157895E+00  0.2105263E+00  0.0000000E+00  0.3499052E-02
    1       -7.788746   1.000000
    2       -0.979945   1.000000
    3        1.187393   1.000000
    4        1.326756   1.000000
    5        5.118758   0.000000
    6        5.829909   0.000000
    7        8.040014   0.000000
    8        8.500083   0.000000
 
  0.3684211E+00  0.2105263E+00  0.0000000E+00  0.3499052E-02
    1       -7.636524   1.000000
    2       -1.385938   1.000000
    3        0.937844   1.000000
    4        1.256221   1.000000
    5        5.092910   0.000000
    6        6.154297   0.000000
    7        7.904303   0.000000
    8        8.552029   0.000000
 
  0.4210526E+00  0.2105263E+00  0.0000000E+00  0.3499052E-02
    1       -7.487592   1.000000
    2       -1.743751   1.000000
    3        0.688962   1.000000
    4        1.224389   1.000000
    5        5.051028   0.000000
    6        6.593352   0.000000
    7        7.860815   0.000000
    8        8.499718   0.000000
 
  0.4736842E+00  0.2105263E+00  0.0000000E+00  0.3499052E-02
    1       -7.362255   1.000000
    2       -2.019173   1.000000
    3        0.468134   1.000000
    4        1.232483   1.000000
    5        5.027900   0.000000
    6        6.956351   0.000000
    7        8.053967   0.000000
    8        8.389933   0.000000
 
 -0.4736842E+00  0.2105263E+00  0.0000000E+00  0.3499052E-02
    1       -7.282257   1.000000
    2       -2.182372   1.000000
    3        0.293282   1.000000
    4        1.279831   1.000000
    5        5.040204   0.000000
    6        7.105605   0.000000
    7        8.259652   0.000000
    8        8.572868   0.000000
 
 -0.4210526E+00  0.2105263E+00  0.0000000E+00  0.3499052E-02
    1       -7.264290   1.000000
    2       -2.213691   1.000000
    3        0.176831   1.000000
    4        1.363893   1.000000
    5        5.091635   0.000000
    6        7.158344   0.000000
    7        8.127796   0.000000
    8        9.187806   0.000000
 
 -0.3684211E+00  0.2105263E+00  0.0000000E+00  0.3499052E-02
    1       -7.312290   1.000000
    2       -2.111735   1.000000
    3        0.129763   1.000000
    4        1.479981   1.000000
    5        5.176996   0.000000
    6        7.208262   0.000000
    7        7.995601   0.000000
    8        9.263578   0.000000
 
 -0.3157895E+00  0.2105263E+00  0.0000000E+00  0.3499052E-02
    1       -7.415491   1.000000
    2       -1.896803   1.000000
    3        0.164835   1.000000
    4        1.620748   1.000000
    5        5.281403   0.000000
    6        7.276532   0.000000
    7        7.846944   0.000000
    8        8.676849   0.000000
 
 -0.2631579E+00  0.2105263E+00  0.0000000E+00  0.3499052E-02
    1       -7.553886   1.000000
    2       -1.606692   1.000000
    3        0.298422   1.000000
    4        1.775384   1.000000
    5        5.373032   0.000000
    6        7.325139   0.000000
    7        7.655066   0.000000
    8        8.074323   0.000000
 
 -0.2105263E+00  0.2105263E+00  0.0000000E+00  0.1749526E-02
    1       -7.706061   1.000000
    2       -1.286607   1.000000
    3        0.547313   1.000000
    4        1.928694   1.000000
    5        5.385089   0.000000
    6        7.167723   0.000000
    7        7.412393   0.000000
    8        7.818182   0.000000
 
  0.2631579E+00  0.2631579E+00  0.0000000E+00  0.8747631E-03
    1       -7.827186   1.000000
    2       -0.817301   1.000000
    3        1.288155   1.000000
    4        1.288156   1.000000
    5        4.884799   0.000000
    6        5.626646   0.000000
    7        8.704246   0.000000
    8        8.704280   0.000000
 
  0.3157895E+00  0.2631579E+00  0.0000000E+00  0.3499052E-02
    1       -7.701846   1.000000
    2       -1.135787   1.000000
    3        1.118720   1.000000
    4        1.173185   1.000000
    5        4.818205   0.000000
    6        5.573970   0.000000
    7        8.712767   0.000000
    8        8.992941   0.000000
 
  0.3684211E+00  0.2631579E+00  0.0000000E+00  0.3499052E-02
    1       -7.562425   1.000000
    2       -1.463182   1.000000
    3        0.871090   1.000000
    4        1.094391   1.000000
    5        4.853205   0.000000
    6        5.674275   0.000000
    7        8.554508   0.000000
    8        9.133365   0.000000
 
  0.4210526E+00  0.2631579E+00  0.0000000E+00  0.3499052E-02
    1       -7.423006   1.000000
    2       -1.759345   1.000000
    3        0.582484   1.000000
    4        1.055603   1.000000
    5        4.869770   0.000000
    6        6.025107   0.000000
    7        8.409164   0.000000
    8        9.132225   0.000000
 
  0.4736842E+00  0.2631579E+00  0.0000000E+00  0.3499052E-02
    1       -7.301447   1.000000
    2       -1.993229   1.000000
    3        0.300622   1.000000
    4        1.058421   1.000000
    5        4.874935   0.000000
    6        6.562327   0.000000
    7        8.311911   0.000000
    8        9.037944   0.000000
 
 -0.4736842E+00  0.2631579E+00  0.0000000E+00  0.3499052E-02
    1       -7.217198   1.000000
    2       -2.139585   1.000000
    3        0.061261   1.000000
    4        1.102535   1.000000
    5        4.906681   0.000000
    6        7.155294   0.000000
    7        8.322342   0.000000
    8        8.896646   0.000000
 
 -0.4210526E+00  0.2631579E+00  0.0000000E+00  0.3499052E-02
    1       -7.186291   1.000000
    2       -2.182563   1.000000
    3       -0.110501   1.000000
    4        1.185734   1.000000
    5        4.979150   0.000000
    6        7.581855   0.000000
    7        8.597803   0.000000
    8        8.732307   0.000000
 
 -0.3684211E+00  0.2631579E+00  0.0000000E+00  0.3499052E-02
    1       -7.214963   1.000000
    2       -2.123105   1.000000
    3       -0.193564   1.000000
    4        1.303650   1.000000
    5        5.090689   0.000000
    6        7.739135   0.000000
    7        8.544400   0.000000
    8        9.000619   0.000000
 
 -0.3157895E+00  0.2631579E+00  0.0000000E+00  0.3499052E-02
    1       -7.296854   1.000000
    2       -1.983226   1.000000
    3       -0.165685   1.000000
    4        1.449180   1.000000
    5        5.226229   0.000000
    6        7.802838   0.000000
    7        8.310290   0.000000
    8        8.623740   0.000000
 
 -0.2631579E+00  0.2631579E+00  0.0000000E+00  0.1749526E-02
    1       -7.416157   1.000000
    2       -1.799962   1.000000
    3       -0.004763   1.000000
    4        1.611582   1.000000
    5        5.348234   0.000000
    6        7.753727   0.000000
    7        8.006625   0.000000
    8        8.085802   0.000000
 
  0.3157895E+00  0.3157895E+00  0.0000000E+00  0.8747631E-03
    1       -7.592065   1.000000
    2       -1.374678   1.000000
    3        1.048371   1.000000
    4        1.048371   1.000000
    5        4.600563   0.000000
    6        5.375089   0.000000
    7        9.415946   0.000000
    8        9.416126   0.000000
 
  0.3684211E+00  0.3157895E+00  0.0000000E+00  0.3499052E-02
    1       -7.468507   1.000000
    2       -1.635471   1.000000
    3        0.884850   1.000000
    4        0.959734   1.000000
    5        4.564992   0.000000
    6        5.291481   0.000000
    7        9.405013   0.000000
    8        9.690405   0.000000
 
  0.4210526E+00  0.3157895E+00  0.0000000E+00  0.3499052E-02
    1       -7.343717   1.000000
    2       -1.873050   1.000000
    3        0.620985   1.000000
    4        0.911652   1.000000
    5        4.624280   0.000000
    6        5.430235   0.000000
    7        9.255768   0.000000
    8        9.782720   0.000000
 
  0.4736842E+00  0.3157895E+00  0.0000000E+00  0.3499052E-02
    1       -7.233201   1.000000
    2       -2.057006   1.000000
    3        0.311729   1.000000
    4        0.906191   1.000000
    5        4.667794   0.000000
    6        5.848088   0.000000
    7        9.115014   0.000000
    8        9.729659   0.000000
 
 -0.4736842E+00  0.3157895E+00  0.0000000E+00  0.3499052E-02
    1       -7.153638   1.000000
    2       -2.167554   1.000000
    3        0.017329   1.000000
    4        0.943471   1.000000
    5        4.715870   0.000000
    6        6.459165   0.000000
    7        9.005754   0.000000
    8        9.587025   0.000000
 
 -0.4210526E+00  0.3157895E+00  0.0000000E+00  0.3499052E-02
    1       -7.118810   1.000000
    2       -2.197213   1.000000
    3       -0.215091   1.000000
    4        1.021729   1.000000
    5        4.799340   0.000000
    6        7.163969   0.000000
    7        8.950363   0.000000
    8        9.384465   0.000000
 
 -0.3684211E+00  0.3157895E+00  0.0000000E+00  0.3499052E-02
    1       -7.134911   1.000000
    2       -2.156245   1.000000
    3       -0.345923   1.000000
    4        1.137076   1.000000
    5        4.923946   0.000000
    6        7.829628   0.000000
    7        8.977095   0.000000
    8        9.115839   0.000000
 
 -0.3157895E+00  0.3157895E+00  0.0000000E+00  0.1749526E-02
    1       -7.198189   1.000000
    2       -2.073850   1.000000
    3       -0.337924   1.000000
    4        1.282952   1.000000
    5        5.078098   0.000000
    6        8.155581   0.000000
    7        8.755117   0.000000
    8        8.785716   0.000000
 
  0.3684211E+00  0.3684211E+00  0.0000000E+00  0.8747631E-03
    1       -7.363151   1.000000
    2       -1.843743   1.000000
    3        0.860540   1.000000
    4        0.860540   1.000000
    5        4.381232   0.000000
    6        5.066946   0.000000
    7       10.134436   0.000000
    8       10.134816   0.000000
 
  0.4210526E+00  0.3684211E+00  0.0000000E+00  0.3499052E-02
    1       -7.257543   1.000000
    2       -2.036109   1.000000
    3        0.711821   1.000000
    4        0.801847   1.000000
    5        4.378447   0.000000
    6        5.018518   0.000000
    7       10.153055   0.000000
    8       10.377874   0.000000
 
  0.4736842E+00  0.3684211E+00  0.0000000E+00  0.3499052E-02
    1       -7.165094   1.000000
    2       -2.178671   1.000000
    3        0.448794   1.000000
    4        0.786240   1.000000
    5        4.459551   0.000000
    6        5.230698   0.000000
    7       10.016435   0.000000
    8       10.407860   0.000000
 