 running on   48 total cores
 distrk:  each k-point on   12 cores,    4 groups
 distr:  one band on   12 cores,    1 groups
 using from now: INCAR     
 vasp.5.4.4.18Apr17-6-g9f103f2a35 (build Nov 04 2020 14:40:39) complex          
  
 POSCAR found type information on POSCAR  Al As
 POSCAR found :  2 types and       2 ions
 scaLAPACK will be used

 ----------------------------------------------------------------------------- 
|                                                                             |
|           W    W    AA    RRRRR   N    N  II  N    N   GGGG   !!!           |
|           W    W   A  A   R    R  NN   N  II  NN   N  G    G  !!!           |
|           W    W  A    A  R    R  N N  N  II  N N  N  G       !!!           |
|           W WW W  AAAAAA  RRRRR   N  N N  II  N  N N  G  GGG   !            |
|           WW  WW  A    A  R   R   N   NN  II  N   NN  G    G                |
|           W    W  A    A  R    R  N    N  II  N    N   GGGG   !!!           |
|                                                                             |
|      You have enabled k-point parallelism (KPAR>1).                         |
|      This developmental code was originally  written by Paul Kent at ORNL,  |
|      and carefully double checked in Vienna.                                |
|      GW as well as linear response parallelism added by Martijn Marsman     |
|      and Georg Kresse.                                                      |
|      Carefully verify results versus KPAR=1.                                |
|      Report problems to Paul Kent and Vienna.                               |
|                                                                             |
 ----------------------------------------------------------------------------- 

 LDA part: xc-table for Pade appr. of Perdew
 POSCAR found type information on POSCAR  Al As
 POSCAR found :  2 types and       2 ions
 generate k-points for:   19   19   19
 POSCAR, INCAR and KPOINTS ok, starting setup
 FFT: planning ...
 WAVECAR not read
 entering main loop
       N       E                     dE             d eps       ncg     rms          rms(c)
DAV:   1     0.139730919594E+02    0.13973E+02   -0.29365E+03  3528   0.731E+02
DAV:   2    -0.867136801787E+01   -0.22644E+02   -0.22444E+02  4728   0.856E+01
DAV:   3    -0.937182310439E+01   -0.70046E+00   -0.70046E+00  4408   0.199E+01
DAV:   4    -0.937526933312E+01   -0.34462E-02   -0.34462E-02  5504   0.157E+00
DAV:   5    -0.937527991618E+01   -0.10583E-04   -0.10583E-04  4552   0.745E-02    0.246E+00
RMM:   6    -0.920105226360E+01    0.17423E+00   -0.21966E-01  3535   0.234E+00    0.133E+00
RMM:   7    -0.918122291945E+01    0.19829E-01   -0.87842E-02  3723   0.159E+00    0.494E-01
RMM:   8    -0.918181508324E+01   -0.59216E-03   -0.58562E-03  3743   0.622E-01    0.456E-02
RMM:   9    -0.918211583099E+01   -0.30075E-03   -0.48177E-04  4065   0.149E-01    0.264E-02
RMM:  10    -0.918216695232E+01   -0.51121E-04   -0.11245E-04  3877   0.758E-02    0.502E-03
RMM:  11    -0.918217140655E+01   -0.44542E-05   -0.17706E-05  4176   0.245E-02    0.556E-03
RMM:  12    -0.918216930416E+01    0.21024E-05   -0.48616E-06  4061   0.114E-02    0.504E-04
RMM:  13    -0.918216942995E+01   -0.12580E-06   -0.86786E-08  2484   0.244E-03
   1 F= -.91821694E+01 E0= -.91821694E+01  d E =0.000000E+00
