   2   2   0   0
  0.1509511E+02  0.3495107E-09  0.3495107E-09  0.3495107E-09  0.0000000E+00
  1.000000000000000E-004
  CAR 
 unknown system                          
     16.69730178    -10.64908717  301      5.12636096      1.00000000
    -10.649  0.0000E+00  0.0000E+00
    -10.558  0.0000E+00  0.0000E+00
    -10.467  0.0000E+00  0.0000E+00
    -10.376  0.0000E+00  0.0000E+00
    -10.284  0.0000E+00  0.0000E+00
    -10.193  0.0000E+00  0.0000E+00
    -10.102  0.0000E+00  0.0000E+00
    -10.011  0.0000E+00  0.0000E+00
     -9.920  0.0000E+00  0.0000E+00
     -9.829  0.0000E+00  0.0000E+00
     -9.738  0.0000E+00  0.0000E+00
     -9.646  0.0000E+00  0.0000E+00
     -9.555  0.0000E+00  0.0000E+00
     -9.464  0.0000E+00  0.0000E+00
     -9.373  0.4521E-01  0.7275E-03
     -9.282  0.9429E-01  0.7350E-02
     -9.191  0.1292E+00  0.1774E-01
     -9.099  0.1588E+00  0.3080E-01
     -9.008  0.1795E+00  0.4618E-01
     -8.917  0.2028E+00  0.6365E-01
     -8.826  0.2213E+00  0.8295E-01
     -8.735  0.2422E+00  0.1041E+00
     -8.644  0.2586E+00  0.1269E+00
     -8.553  0.2770E+00  0.1513E+00
     -8.461  0.2947E+00  0.1774E+00
     -8.370  0.3113E+00  0.2050E+00
     -8.279  0.3291E+00  0.2342E+00
     -8.188  0.3464E+00  0.2650E+00
     -8.097  0.3636E+00  0.2973E+00
     -8.006  0.3818E+00  0.3313E+00
     -7.914  0.4006E+00  0.3670E+00
     -7.823  0.4194E+00  0.4043E+00
     -7.732  0.4398E+00  0.4435E+00
     -7.641  0.4613E+00  0.4845E+00
     -7.550  0.4843E+00  0.5276E+00
     -7.459  0.5095E+00  0.5729E+00
     -7.368  0.5373E+00  0.6206E+00
     -7.276  0.5690E+00  0.6710E+00
     -7.185  0.6070E+00  0.7245E+00
     -7.094  0.6536E+00  0.7819E+00
     -7.003  0.7148E+00  0.8441E+00
     -6.912  0.8330E+00  0.9137E+00
     -6.821  0.9109E+00  0.9964E+00
     -6.729  0.8844E+00  0.1078E+01
     -6.638  0.8777E+00  0.1159E+01
     -6.547  0.8626E+00  0.1238E+01
     -6.456  0.8404E+00  0.1316E+01
     -6.365  0.8375E+00  0.1392E+01
     -6.274  0.8232E+00  0.1468E+01
     -6.183  0.8154E+00  0.1542E+01
     -6.091  0.8168E+00  0.1616E+01
     -6.000  0.8204E+00  0.1691E+01
     -5.909  0.8448E+00  0.1767E+01
     -5.818  0.9137E+00  0.1846E+01
     -5.727  0.1211E+01  0.1939E+01
     -5.636  0.3887E+00  0.1998E+01
     -5.544  0.0000E+00  0.2000E+01
     -5.453  0.0000E+00  0.2000E+01
     -5.362  0.0000E+00  0.2000E+01
     -5.271  0.0000E+00  0.2000E+01
     -5.180  0.0000E+00  0.2000E+01
     -5.089  0.0000E+00  0.2000E+01
     -4.998  0.0000E+00  0.2000E+01
     -4.906  0.0000E+00  0.2000E+01
     -4.815  0.0000E+00  0.2000E+01
     -4.724  0.0000E+00  0.2000E+01
     -4.633  0.0000E+00  0.2000E+01
     -4.542  0.0000E+00  0.2000E+01
     -4.451  0.0000E+00  0.2000E+01
     -4.359  0.0000E+00  0.2000E+01
     -4.268  0.0000E+00  0.2000E+01
     -4.177  0.0000E+00  0.2000E+01
     -4.086  0.0000E+00  0.2000E+01
     -3.995  0.0000E+00  0.2000E+01
     -3.904  0.0000E+00  0.2000E+01
     -3.812  0.0000E+00  0.2000E+01
     -3.721  0.0000E+00  0.2000E+01
     -3.630  0.0000E+00  0.2000E+01
     -3.539  0.0000E+00  0.2000E+01
     -3.448  0.0000E+00  0.2000E+01
     -3.357  0.0000E+00  0.2000E+01
     -3.266  0.0000E+00  0.2000E+01
     -3.174  0.0000E+00  0.2000E+01
     -3.083  0.0000E+00  0.2000E+01
     -2.992  0.0000E+00  0.2000E+01
     -2.901  0.1778E+00  0.2007E+01
     -2.810  0.4160E+00  0.2033E+01
     -2.719  0.6457E+00  0.2083E+01
     -2.627  0.9443E+00  0.2156E+01
     -2.536  0.1442E+01  0.2263E+01
     -2.445  0.2673E+01  0.2449E+01
     -2.354  0.1474E+01  0.2633E+01
     -2.263  0.1068E+01  0.2747E+01
     -2.172  0.9025E+00  0.2837E+01
     -2.081  0.7692E+00  0.2913E+01
     -1.989  0.6826E+00  0.2978E+01
     -1.898  0.6198E+00  0.3037E+01
     -1.807  0.5588E+00  0.3091E+01
     -1.716  0.5147E+00  0.3140E+01
     -1.625  0.4823E+00  0.3185E+01
     -1.534  0.4501E+00  0.3228E+01
     -1.442  0.4133E+00  0.3267E+01
     -1.351  0.3917E+00  0.3304E+01
     -1.260  0.3729E+00  0.3339E+01
     -1.169  0.3521E+00  0.3372E+01
     -1.078  0.3300E+00  0.3403E+01
     -0.987  0.3110E+00  0.3432E+01
     -0.896  0.2986E+00  0.3460E+01
     -0.804  0.2856E+00  0.3486E+01
     -0.713  0.2722E+00  0.3512E+01
     -0.622  0.2566E+00  0.3536E+01
     -0.531  0.2423E+00  0.3559E+01
     -0.440  0.2337E+00  0.3580E+01
     -0.349  0.2250E+00  0.3601E+01
     -0.257  0.4440E+00  0.3631E+01
     -0.166  0.6152E+00  0.3679E+01
     -0.075  0.7547E+00  0.3741E+01
      0.016  0.1081E+01  0.3823E+01
      0.107  0.1003E+01  0.3917E+01
      0.198  0.1314E+01  0.4007E+01
      0.289  0.8921E+00  0.4090E+01
      0.381  0.8650E+00  0.4170E+01
      0.472  0.8323E+00  0.4248E+01
      0.563  0.8142E+00  0.4323E+01
      0.654  0.8534E+00  0.4400E+01
      0.745  0.8976E+00  0.4480E+01
      0.836  0.8959E+00  0.4561E+01
      0.928  0.9128E+00  0.4644E+01
      1.019  0.9430E+00  0.4728E+01
      1.110  0.9707E+00  0.4816E+01
      1.201  0.1029E+01  0.4907E+01
      1.292  0.1066E+01  0.5003E+01
      1.383  0.1199E+01  0.5107E+01
      1.474  0.1337E+01  0.5225E+01
      1.566  0.1288E+01  0.5342E+01
      1.657  0.1271E+01  0.5458E+01
      1.748  0.1249E+01  0.5573E+01
      1.839  0.1233E+01  0.5686E+01
      1.930  0.1211E+01  0.5798E+01
      2.021  0.1198E+01  0.5908E+01
      2.113  0.1186E+01  0.6016E+01
      2.204  0.1167E+01  0.6123E+01
      2.295  0.1153E+01  0.6229E+01
      2.386  0.1131E+01  0.6333E+01
      2.477  0.1112E+01  0.6436E+01
      2.568  0.1104E+01  0.6537E+01
      2.659  0.1090E+01  0.6637E+01
      2.751  0.1074E+01  0.6735E+01
      2.842  0.1060E+01  0.6833E+01
      2.933  0.1047E+01  0.6929E+01
      3.024  0.1035E+01  0.7024E+01
      3.115  0.1022E+01  0.7117E+01
      3.206  0.1004E+01  0.7210E+01
      3.298  0.1006E+01  0.7301E+01
      3.389  0.9868E+00  0.7392E+01
      3.480  0.7898E+00  0.7474E+01
      3.571  0.6812E+00  0.7541E+01
      3.662  0.6069E+00  0.7600E+01
      3.753  0.5433E+00  0.7652E+01
      3.844  0.4884E+00  0.7699E+01
      3.936  0.4417E+00  0.7741E+01
      4.027  0.4032E+00  0.7780E+01
      4.118  0.3628E+00  0.7815E+01
      4.209  0.3270E+00  0.7846E+01
      4.300  0.2920E+00  0.7874E+01
      4.391  0.2597E+00  0.7900E+01
      4.483  0.2315E+00  0.7922E+01
      4.574  0.2001E+00  0.7942E+01
      4.665  0.1694E+00  0.7958E+01
      4.756  0.1500E+00  0.7973E+01
      4.847  0.1154E+00  0.7985E+01
      4.938  0.7832E-01  0.7994E+01
      5.030  0.4246E-01  0.7999E+01
      5.121  0.0000E+00  0.8000E+01
      5.212  0.0000E+00  0.8000E+01
      5.303  0.0000E+00  0.8000E+01
      5.394  0.0000E+00  0.8000E+01
      5.485  0.0000E+00  0.8000E+01
      5.576  0.0000E+00  0.8000E+01
      5.668  0.0000E+00  0.8000E+01
      5.759  0.0000E+00  0.8000E+01
      5.850  0.0000E+00  0.8000E+01
      5.941  0.0000E+00  0.8000E+01
      6.032  0.0000E+00  0.8000E+01
      6.123  0.0000E+00  0.8000E+01
      6.215  0.0000E+00  0.8000E+01
      6.306  0.0000E+00  0.8000E+01
      6.397  0.1354E-01  0.8000E+01
      6.488  0.9927E-01  0.8005E+01
      6.579  0.1584E+00  0.8017E+01
      6.670  0.2162E+00  0.8034E+01
      6.761  0.2809E+00  0.8057E+01
      6.853  0.3349E+00  0.8085E+01
      6.944  0.3762E+00  0.8118E+01
      7.035  0.4186E+00  0.8154E+01
      7.126  0.4626E+00  0.8194E+01
      7.217  0.5092E+00  0.8238E+01
      7.308  0.5964E+00  0.8288E+01
      7.400  0.7046E+00  0.8348E+01
      7.491  0.7754E+00  0.8415E+01
      7.582  0.8598E+00  0.8489E+01
      7.673  0.9537E+00  0.8572E+01
      7.764  0.1069E+01  0.8664E+01
      7.855  0.1222E+01  0.8768E+01
      7.946  0.1458E+01  0.8889E+01
      8.038  0.1958E+01  0.9042E+01
      8.129  0.1723E+01  0.9218E+01
      8.220  0.1485E+01  0.9362E+01
      8.311  0.1346E+01  0.9488E+01
      8.402  0.1272E+01  0.9608E+01
      8.493  0.1228E+01  0.9722E+01
      8.585  0.1164E+01  0.9832E+01
      8.676  0.1041E+01  0.9935E+01
      8.767  0.9501E+00  0.1002E+02
      8.858  0.8506E+00  0.1010E+02
      8.949  0.7874E+00  0.1018E+02
      9.040  0.7828E+00  0.1025E+02
      9.131  0.8479E+00  0.1032E+02
      9.223  0.8104E+00  0.1040E+02
      9.314  0.8981E+00  0.1048E+02
      9.405  0.1009E+01  0.1056E+02
      9.496  0.1198E+01  0.1066E+02
      9.587  0.2087E+01  0.1081E+02
      9.678  0.2465E+01  0.1102E+02
      9.770  0.1636E+01  0.1120E+02
      9.861  0.1555E+01  0.1134E+02
      9.952  0.1415E+01  0.1148E+02
     10.043  0.1276E+01  0.1160E+02
     10.134  0.1265E+01  0.1171E+02
     10.225  0.1186E+01  0.1183E+02
     10.316  0.1077E+01  0.1193E+02
     10.408  0.1032E+01  0.1203E+02
     10.499  0.9853E+00  0.1212E+02
     10.590  0.1027E+01  0.1221E+02
     10.681  0.9751E+00  0.1230E+02
     10.772  0.1018E+01  0.1239E+02
     10.863  0.1087E+01  0.1249E+02
     10.955  0.1222E+01  0.1259E+02
     11.046  0.1310E+01  0.1271E+02
     11.137  0.1303E+01  0.1283E+02
     11.228  0.1294E+01  0.1295E+02
     11.319  0.1224E+01  0.1306E+02
     11.410  0.1269E+01  0.1317E+02
     11.501  0.1229E+01  0.1329E+02
     11.593  0.1185E+01  0.1340E+02
     11.684  0.1181E+01  0.1351E+02
     11.775  0.1141E+01  0.1361E+02
     11.866  0.1078E+01  0.1371E+02
     11.957  0.1063E+01  0.1381E+02
     12.048  0.1012E+01  0.1391E+02
     12.140  0.9232E+00  0.1400E+02
     12.231  0.7858E+00  0.1407E+02
     12.322  0.7326E+00  0.1414E+02
     12.413  0.7246E+00  0.1421E+02
     12.504  0.7467E+00  0.1427E+02
     12.595  0.7667E+00  0.1434E+02
     12.686  0.7740E+00  0.1441E+02
     12.778  0.7889E+00  0.1448E+02
     12.869  0.8162E+00  0.1456E+02
     12.960  0.8479E+00  0.1463E+02
     13.051  0.8859E+00  0.1471E+02
     13.142  0.9552E+00  0.1480E+02
     13.233  0.1073E+01  0.1489E+02
     13.325  0.1273E+01  0.1499E+02
     13.416  0.1672E+01  0.1513E+02
     13.507  0.1169E+01  0.1526E+02
     13.598  0.9674E+00  0.1536E+02
     13.689  0.1014E+01  0.1545E+02
     13.780  0.9641E+00  0.1554E+02
     13.872  0.4792E+00  0.1561E+02
     13.963  0.4465E+00  0.1565E+02
     14.054  0.4079E+00  0.1569E+02
     14.145  0.3874E+00  0.1573E+02
     14.236  0.3574E+00  0.1576E+02
     14.327  0.3272E+00  0.1579E+02
     14.418  0.2998E+00  0.1582E+02
     14.510  0.2758E+00  0.1585E+02
     14.601  0.2579E+00  0.1587E+02
     14.692  0.2375E+00  0.1589E+02
     14.783  0.2211E+00  0.1591E+02
     14.874  0.1883E+00  0.1593E+02
     14.965  0.1642E+00  0.1595E+02
     15.057  0.1432E+00  0.1596E+02
     15.148  0.1252E+00  0.1597E+02
     15.239  0.1123E+00  0.1599E+02
     15.330  0.6812E-01  0.1599E+02
     15.421  0.4066E-01  0.1600E+02
     15.512  0.0000E+00  0.1600E+02
     15.603  0.0000E+00  0.1600E+02
     15.695  0.0000E+00  0.1600E+02
     15.786  0.0000E+00  0.1600E+02
     15.877  0.0000E+00  0.1600E+02
     15.968  0.0000E+00  0.1600E+02
     16.059  0.0000E+00  0.1600E+02
     16.150  0.0000E+00  0.1600E+02
     16.242  0.0000E+00  0.1600E+02
     16.333  0.0000E+00  0.1600E+02
     16.424  0.0000E+00  0.1600E+02
     16.515  0.0000E+00  0.1600E+02
     16.606  0.0000E+00  0.1600E+02
     16.697  0.0000E+00  0.1600E+02
