    2    2    1    1
  0.1509511E+02  0.3495107E-09  0.3495107E-09  0.3495107E-09  0.0000000E+00
  1.000000000000000E-004
  CAR 
 unknown system                          
      8    364      8
 
  0.0000000E+00  0.0000000E+00  0.0000000E+00  0.8218953E-04
    1       -9.406069   1.000000
    2        5.091054   1.000000
    3        5.091054   1.000000
    4        5.091054   1.000000
    5        8.239250   0.000000
    6        8.239250   0.000000
    7        8.239250   0.000000
    8        8.544624   0.000000
 
  0.4347826E-01  0.0000000E+00  0.0000000E+00  0.6575162E-03
    1       -9.377795   1.000000
    2        4.765905   1.000000
    3        5.034284   1.000000
    4        5.034284   1.000000
    5        8.231226   0.000000
    6        8.314211   0.000000
    7        8.314211   0.000000
    8        8.816362   0.000000
 
  0.8695652E-01  0.0000000E+00  0.0000000E+00  0.6575162E-03
    1       -9.293195   1.000000
    2        4.010309   1.000000
    3        4.882179   1.000000
    4        4.882179   1.000000
    5        8.154479   0.000000
    6        8.516366   0.000000
    7        8.516366   0.000000
    8        9.472093   0.000000
 
  0.1304348E+00  0.0000000E+00  0.0000000E+00  0.6575162E-03
    1       -9.153250   1.000000
    2        3.089336   1.000000
    3        4.673392   1.000000
    4        4.673392   1.000000
    5        8.031097   0.000000
    6        8.793843   0.000000
    7        8.793843   0.000000
    8       10.245427   0.000000
 
  0.1739130E+00  0.0000000E+00  0.0000000E+00  0.6575162E-03
    1       -8.959651   1.000000
    2        2.121581   1.000000
    3        4.443275   1.000000
    4        4.443275   1.000000
    5        7.887006   0.000000
    6        9.090306   0.000000
    7        9.090306   0.000000
    8       11.020467   0.000000
 
  0.2173913E+00  0.0000000E+00  0.0000000E+00  0.6575162E-03
    1       -8.715370   1.000000
    2        1.158906   1.000000
    3        4.216105   1.000000
    4        4.216105   1.000000
    5        7.739932   0.000000
    6        9.356621   0.000000
    7        9.356621   0.000000
    8       11.754640   0.000000
 
  0.2608696E+00  0.0000000E+00  0.0000000E+00  0.6575162E-03
    1       -8.425239   1.000000
    2        0.230236   1.000000
    3        4.006871   1.000000
    4        4.006871   1.000000
    5        7.601816   0.000000
    6        9.558312   0.000000
    7        9.558312   0.000000
    8       12.421028   0.000000
 
  0.3043478E+00  0.0000000E+00  0.0000000E+00  0.6575162E-03
    1       -8.097442   1.000000
    2       -0.642717   1.000000
    3        3.824614   1.000000
    4        3.824614   1.000000
    5        7.480314   0.000000
    6        9.682880   0.000000
    7        9.682880   0.000000
    8       12.980700   0.000000
 
  0.3478261E+00  0.0000000E+00  0.0000000E+00  0.6575162E-03
    1       -7.746216   1.000000
    2       -1.437391   1.000000
    3        3.674673   1.000000
    4        3.674673   1.000000
    5        7.379933   0.000000
    6        9.740367   0.000000
    7        9.740367   0.000000
    8       13.380610   0.000000
 
  0.3913043E+00  0.0000000E+00  0.0000000E+00  0.6575162E-03
    1       -7.397128   1.000000
    2       -2.122901   1.000000
    3        3.560240   1.000000
    4        3.560240   1.000000
    5        7.303261   0.000000
    6        9.754003   0.000000
    7        9.754003   0.000000
    8       13.600506   0.000000
 
  0.4347826E+00  0.0000000E+00  0.0000000E+00  0.6575162E-03
    1       -7.095612   1.000000
    2       -2.650374   1.000000
    3        3.483142   1.000000
    4        3.483142   1.000000
    5        7.251649   0.000000
    6        9.748040   0.000000
    7        9.748040   0.000000
    8       13.689618   0.000000
 
  0.4782609E+00  0.0000000E+00  0.0000000E+00  0.6575162E-03
    1       -6.911638   1.000000
    2       -2.947816   1.000000
    3        3.444390   1.000000
    4        3.444390   1.000000
    5        7.225706   0.000000
    6        9.740495   0.000000
    7        9.740495   0.000000
    8       13.715544   0.000000
 
  0.4347826E-01  0.4347826E-01  0.0000000E+00  0.4931372E-03
    1       -9.368355   1.000000
    2        4.846115   1.000000
    3        4.918782   1.000000
    4        4.918782   1.000000
    5        8.101664   0.000000
    6        8.452789   0.000000
    7        8.452789   0.000000
    8        8.811493   0.000000
 
  0.8695652E-01  0.4347826E-01  0.0000000E+00  0.1972549E-02
    1       -9.302494   1.000000
    2        4.241512   1.000000
    3        4.725411   1.000000
    4        4.867320   1.000000
    5        8.076504   0.000000
    6        8.521701   0.000000
    7        8.702864   0.000000
    8        9.307837   0.000000
 
  0.1304348E+00  0.4347826E-01  0.0000000E+00  0.1972549E-02
    1       -9.180954   1.000000
    2        3.378156   1.000000
    3        4.493479   1.000000
    4        4.734503   1.000000
    5        8.112152   0.000000
    6        8.556610   0.000000
    7        9.012887   0.000000
    8       10.037170   0.000000
 
  0.1739130E+00  0.4347826E-01  0.0000000E+00  0.1972549E-02
    1       -9.005118   1.000000
    2        2.432954   1.000000
    3        4.254034   1.000000
    4        4.535527   1.000000
    5        8.059579   0.000000
    6        8.736253   0.000000
    7        9.331609   0.000000
    8       10.782036   0.000000
 
  0.2173913E+00  0.4347826E-01  0.0000000E+00  0.1972549E-02
    1       -8.777523   1.000000
    2        1.474562   1.000000
    3        4.027353   1.000000
    4        4.308199   1.000000
    5        7.942470   0.000000
    6        8.992996   0.000000
    7        9.613220   0.000000
    8       11.480740   0.000000
 
  0.2608696E+00  0.4347826E-01  0.0000000E+00  0.1972549E-02
    1       -8.502230   1.000000
    2        0.538797   1.000000
    3        3.825931   1.000000
    4        4.078657   1.000000
    5        7.812019   0.000000
    6        9.234763   0.000000
    7        9.822914   0.000000
    8       12.112799   0.000000
 
  0.3043478E+00  0.4347826E-01  0.0000000E+00  0.1972549E-02
    1       -8.186140   1.000000
    2       -0.350175   1.000000
    3        3.657242   1.000000
    4        3.862949   1.000000
    5        7.689101   0.000000
    6        9.416928   0.000000
    7        9.945151   0.000000
    8       12.668953   0.000000
 
  0.3478261E+00  0.4347826E-01  0.0000000E+00  0.1972549E-02
    1       -7.841006   1.000000
    2       -1.170193   1.000000
    3        3.525664   1.000000
    4        3.670802   1.000000
    5        7.583073   0.000000
    6        9.531519   0.000000
    7        9.987469   0.000000
    8       13.130266   0.000000
 
  0.3913043E+00  0.4347826E-01  0.0000000E+00  0.1972549E-02
    1       -7.487855   1.000000
    2       -1.893720   1.000000
    3        3.433579   1.000000
    4        3.508281   1.000000
    5        7.498646   0.000000
    6        9.595281   0.000000
    7        9.973036   0.000000
    8       13.462774   0.000000
 
  0.4347826E+00  0.4347826E-01  0.0000000E+00  0.1972549E-02
    1       -7.164380   1.000000
    2       -2.478823   1.000000
    3        3.379315   1.000000
    4        3.382051   1.000000
    5        7.438268   0.000000
    6        9.633262   0.000000
    7        9.928424   0.000000
    8       13.654617   0.000000
 
  0.4782609E+00  0.4347826E-01  0.0000000E+00  0.1972549E-02
    1       -6.932968   1.000000
    2       -2.860565   1.000000
    3        3.286605   1.000000
    4        3.371248   1.000000
    5        7.403145   0.000000
    6        9.666716   0.000000
    7        9.874930   0.000000
    8       13.740516   0.000000
 
 -0.4782609E+00  0.4347826E-01  0.0000000E+00  0.1972549E-02
    1       -6.867448   1.000000
    2       -2.963685   1.000000
    3        3.232094   1.000000
    4        3.400656   1.000000
    5        7.393810   0.000000
    6        9.708204   0.000000
    7        9.825268   0.000000
    8       13.762750   0.000000
 
 -0.4347826E+00  0.4347826E-01  0.0000000E+00  0.1972549E-02
    1       -6.995213   1.000000
    2       -2.760529   1.000000
    3        3.217169   1.000000
    4        3.469214   1.000000
    5        7.410379   0.000000
    6        9.760713   0.000000
    7        9.782925   0.000000
    8       13.734552   0.000000
 
 -0.3913043E+00  0.4347826E-01  0.0000000E+00  0.1972549E-02
    1       -7.265767   1.000000
    2       -2.302205   1.000000
    3        3.242759   1.000000
    4        3.575332   1.000000
    5        7.452617   0.000000
    6        9.742269   0.000000
    7        9.817624   0.000000
    8       13.632183   0.000000
 
 -0.3478261E+00  0.4347826E-01  0.0000000E+00  0.1972549E-02
    1       -7.604781   1.000000
    2       -1.664868   1.000000
    3        3.309262   1.000000
    4        3.716754   1.000000
    5        7.519905   0.000000
    6        9.688801   0.000000
    7        9.862385   0.000000
    8       13.407058   0.000000
 
 -0.3043478E+00  0.4347826E-01  0.0000000E+00  0.1972549E-02
    1       -7.958412   1.000000
    2       -0.905448   1.000000
    3        3.416431   1.000000
    4        3.890272   1.000000
    5        7.610908   0.000000
    6        9.601302   0.000000
    7        9.869057   0.000000
    8       13.029749   0.000000
 
 -0.2608696E+00  0.4347826E-01  0.0000000E+00  0.1972549E-02
    1       -8.295610   1.000000
    2       -0.059989   1.000000
    3        3.563109   1.000000
    4        4.091142   1.000000
    5        7.723098   0.000000
    6        9.458361   0.000000
    7        9.806777   0.000000
    8       12.523603   0.000000
 
 -0.2173913E+00  0.4347826E-01  0.0000000E+00  0.1972549E-02
    1       -8.599075   1.000000
    2        0.846385   1.000000
    3        3.746833   1.000000
    4        4.312065   1.000000
    5        7.851933   0.000000
    6        9.250092   0.000000
    7        9.652011   0.000000
    8       11.930609   0.000000
 
 -0.1739130E+00  0.4347826E-01  0.0000000E+00  0.1972549E-02
    1       -8.859042   1.000000
    2        1.791057   1.000000
    3        3.963223   1.000000
    4        4.541286   1.000000
    5        7.989304   0.000000
    6        8.988817   0.000000
    7        9.404569   0.000000
    8       11.274921   0.000000
 
 -0.1304348E+00  0.4347826E-01  0.0000000E+00  0.1972549E-02
    1       -9.069718   1.000000
    2        2.745400   1.000000
    3        4.205379   1.000000
    4        4.759952   1.000000
    5        8.120936   0.000000
    6        8.710664   0.000000
    7        9.094558   0.000000
    8       10.569241   0.000000
 
 -0.8695652E-01  0.4347826E-01  0.0000000E+00  0.1972549E-02
    1       -9.227644   1.000000
    2        3.658896   1.000000
    3        4.464715   1.000000
    4        4.939029   1.000000
    5        8.219874   0.000000
    6        8.468596   0.000000
    7        8.777534   0.000000
    8        9.842379   0.000000
 
 -0.4347826E-01  0.4347826E-01  0.0000000E+00  0.9862743E-03
    1       -9.330719   1.000000
    2        4.405509   1.000000
    3        4.749364   1.000000
    4        5.040827   1.000000
    5        8.239602   0.000000
    6        8.321459   0.000000
    7        8.525610   0.000000
    8        9.185936   0.000000
 
  0.8695652E-01  0.8695652E-01  0.0000000E+00  0.4931372E-03
    1       -9.255447   1.000000
    2        4.240894   1.000000
    3        4.504700   1.000000
    4        4.504700   1.000000
    5        7.862386   0.000000
    6        8.989695   0.000000
    7        8.989696   0.000000
    8        9.308604   0.000000
 
  0.1304348E+00  0.8695652E-01  0.0000000E+00  0.1972549E-02
    1       -9.152534   1.000000
    2        3.568464   1.000000
    3        4.257016   1.000000
    4        4.407074   1.000000
    5        7.819908   0.000000
    6        9.026426   0.000000
    7        9.328944   0.000000
    8        9.885654   0.000000
 
  0.1739130E+00  0.8695652E-01  0.0000000E+00  0.1972549E-02
    1       -8.994921   1.000000
    2        2.692656   1.000000
    3        4.009910   1.000000
    4        4.271725   1.000000
    5        7.917537   0.000000
    6        8.959428   0.000000
    7        9.673824   0.000000
    8       10.567957   0.000000
 
  0.2173913E+00  0.8695652E-01  0.0000000E+00  0.1972549E-02
    1       -8.784746   1.000000
    2        1.768540   1.000000
    3        3.781420   1.000000
    4        4.068449   1.000000
    5        8.038815   0.000000
    6        8.958102   0.000000
    7        9.980720   0.000000
    8       11.165488   0.000000
 
  0.2608696E+00  0.8695652E-01  0.0000000E+00  0.1972549E-02
    1       -8.525467   1.000000
    2        0.846504   1.000000
    3        3.582817   1.000000
    4        3.833667   1.000000
    5        8.075383   0.000000
    6        9.069110   0.000000
    7       10.213144   0.000000
    8       11.659672   0.000000
 
  0.3043478E+00  0.8695652E-01  0.0000000E+00  0.1972549E-02
    1       -8.222921   1.000000
    2       -0.042989   1.000000
    3        3.420985   1.000000
    4        3.594503   1.000000
    5        8.028895   0.000000
    6        9.235367   0.000000
    7       10.350639   0.000000
    8       12.097093   0.000000
 
  0.3478261E+00  0.8695652E-01  0.0000000E+00  0.1972549E-02
    1       -7.886899   1.000000
    2       -0.875703   1.000000
    3        3.300015   1.000000
    4        3.367832   1.000000
    5        7.951967   0.000000
    6        9.376545   0.000000
    7       10.395677   0.000000
    8       12.536305   0.000000
 
  0.3913043E+00  0.8695652E-01  0.0000000E+00  0.1972549E-02
    1       -7.534739   1.000000
    2       -1.625350   1.000000
    3        3.164100   1.000000
    4        3.222090   1.000000
    5        7.876403   0.000000
    6        9.469536   0.000000
    7       10.369431   0.000000
    8       12.984023   0.000000
 
  0.4347826E+00  0.8695652E-01  0.0000000E+00  0.1972549E-02
    1       -7.197478   1.000000
    2       -2.255173   1.000000
    3        2.990069   1.000000
    4        3.188063   1.000000
    5        7.816361   0.000000
    6        9.530394   0.000000
    7       10.299685   0.000000
    8       13.387007   0.000000
 
  0.4782609E+00  0.8695652E-01  0.0000000E+00  0.1972549E-02
    1       -6.928743   1.000000
    2       -2.707992   1.000000
    3        2.850456   1.000000
    4        3.197771   1.000000
    5        7.778061   0.000000
    6        9.583145   0.000000
    7       10.210634   0.000000
    8       13.676600   0.000000
 
 -0.4782609E+00  0.8695652E-01  0.0000000E+00  0.1972549E-02
    1       -6.802300   1.000000
    2       -2.908001   1.000000
    3        2.748778   1.000000
    4        3.250238   1.000000
    5        7.764094   0.000000
    6        9.645185   0.000000
    7       10.118290   0.000000
    8       13.821674   0.000000
 
 -0.4347826E+00  0.8695652E-01  0.0000000E+00  0.1972549E-02
    1       -6.867902   1.000000
    2       -2.804726   1.000000
    3        2.687771   1.000000
    4        3.343709   1.000000
    5        7.775211   0.000000
    6        9.724120   0.000000
    7       10.029315   0.000000
    8       13.824165   0.000000
 
 -0.3913043E+00  0.8695652E-01  0.0000000E+00  0.1972549E-02
    1       -7.098244   1.000000
    2       -2.425904   1.000000
    3        2.669567   1.000000
    4        3.475625   1.000000
    5        7.811048   0.000000
    6        9.817515   0.000000
    7        9.941144   0.000000
    8       13.678638   0.000000
 
 -0.3478261E+00  0.8695652E-01  0.0000000E+00  0.1972549E-02
    1       -7.420132   1.000000
    2       -1.846478   1.000000
    3        2.695853   1.000000
    4        3.642520   1.000000
    5        7.870516   0.000000
    6        9.842516   0.000000
    7        9.912001   0.000000
    8       13.376627   0.000000
 
 -0.3043478E+00  0.8695652E-01  0.0000000E+00  0.1972549E-02
    1       -7.771679   1.000000
    2       -1.131667   1.000000
    3        2.767884   1.000000
    4        3.839601   1.000000
    5        7.951567   0.000000
    6        9.715348   0.000000
    7        9.980823   0.000000
    8       12.947353   0.000000
 
 -0.2608696E+00  0.8695652E-01  0.0000000E+00  0.1972549E-02
    1       -8.115362   1.000000
    2       -0.324721   1.000000
    3        2.886684   1.000000
    4        4.060089   1.000000
    5        8.050617   0.000000
    6        9.541168   0.000000
    7        9.982706   0.000000
    8       12.456720   0.000000
 
 -0.2173913E+00  0.8695652E-01  0.0000000E+00  0.1972549E-02
    1       -8.430240   1.000000
    2        0.543739   1.000000
    3        3.053506   1.000000
    4        4.293986   1.000000
    5        8.161120   0.000000
    6        9.312732   0.000000
    7        9.871854   0.000000
    8       11.961990   0.000000
 
 -0.1739130E+00  0.8695652E-01  0.0000000E+00  0.1972549E-02
    1       -8.704521   1.000000
    2        1.444193   1.000000
    3        3.271637   1.000000
    4        4.526112   1.000000
    5        8.270324   0.000000
    6        9.045174   0.000000
    7        9.631145   0.000000
    8       11.473181   0.000000
 
 -0.1304348E+00  0.8695652E-01  0.0000000E+00  0.1972549E-02
    1       -8.931326   1.000000
    2        2.332292   1.000000
    3        3.553194   1.000000
    4        4.733252   1.000000
    5        8.351036   0.000000
    6        8.777969   0.000000
    7        9.306008   0.000000
    8       10.955175   0.000000
 
 -0.8695652E-01  0.8695652E-01  0.0000000E+00  0.9862743E-03
    1       -9.106535   1.000000
    2        3.113773   1.000000
    3        3.940963   1.000000
    4        4.882827   1.000000
    5        8.345172   0.000000
    6        8.566924   0.000000
    7        8.998948   0.000000
    8       10.389459   0.000000
 
  0.1304348E+00  0.1304348E+00  0.0000000E+00  0.4931372E-03
    1       -9.068278   1.000000
    2        3.460400   1.000000
    3        3.998924   1.000000
    4        3.998924   1.000000
    5        7.572202   0.000000
    6        9.697031   0.000000
    7        9.697031   0.000000
    8        9.768509   0.000000
 
  0.1739130E+00  0.1304348E+00  0.0000000E+00  0.1972549E-02
    1       -8.929143   1.000000
    2        2.815425   1.000000
    3        3.745020   1.000000
    4        3.840013   1.000000
    5        7.522478   0.000000
    6        9.602369   0.000000
    7       10.073304   0.000000
    8       10.384195   0.000000
 
  0.2173913E+00  0.1304348E+00  0.0000000E+00  0.1972549E-02
    1       -8.736907   1.000000
    2        1.984889   1.000000
    3        3.512458   1.000000
    4        3.670741   1.000000
    5        7.638141   0.000000
    6        9.494738   0.000000
    7       10.415352   0.000000
    8       10.890400   0.000000
 
  0.2608696E+00  0.1304348E+00  0.0000000E+00  0.1972549E-02
    1       -8.494544   1.000000
    2        1.113024   1.000000
    3        3.312215   1.000000
    4        3.443373   1.000000
    5        7.818647   0.000000
    6        9.450730   0.000000
    7       10.684619   0.000000
    8       11.224932   0.000000
 
  0.3043478E+00  0.1304348E+00  0.0000000E+00  0.1972549E-02
    1       -8.207030   1.000000
    2        0.248574   1.000000
    3        3.151145   1.000000
    4        3.188277   1.000000
    5        7.960161   0.000000
    6        9.492152   0.000000
    7       10.854808   0.000000
    8       11.478082   0.000000
 
  0.3478261E+00  0.1304348E+00  0.0000000E+00  0.1972549E-02
    1       -7.882609   1.000000
    2       -0.577364   1.000000
    3        2.931629   1.000000
    4        3.033441   1.000000
    5        8.020072   0.000000
    6        9.585101   0.000000
    7       10.921324   0.000000
    8       11.780301   0.000000
 
  0.3913043E+00  0.1304348E+00  0.0000000E+00  0.1972549E-02
    1       -7.535679   1.000000
    2       -1.336749   1.000000
    3        2.690217   1.000000
    4        2.961396   1.000000
    5        8.023832   0.000000
    6        9.666290   0.000000
    7       10.901074   0.000000
    8       12.202552   0.000000
 
  0.4347826E+00  0.1304348E+00  0.0000000E+00  0.1972549E-02
    1       -7.191785   1.000000
    2       -1.995402   1.000000
    3        2.474741   1.000000
    4        2.936004   1.000000
    5        8.010328   0.000000
    6        9.715036   0.000000
    7       10.821897   0.000000
    8       12.721783   0.000000
 
  0.4782609E+00  0.1304348E+00  0.0000000E+00  0.1972549E-02
    1       -6.896062   1.000000
    2       -2.502837   1.000000
    3        2.292399   1.000000
    4        2.957081   1.000000
    5        8.004042   0.000000
    6        9.748781   0.000000
    7       10.710452   0.000000
    8       13.250317   0.000000
 
 -0.4782609E+00  0.1304348E+00  0.0000000E+00  0.1972549E-02
    1       -6.717050   1.000000
    2       -2.787346   1.000000
    3        2.148386   1.000000
    4        3.023543   1.000000
    5        8.016362   0.000000
    6        9.789374   0.000000
    7       10.585782   0.000000
    8       13.665036   0.000000
 
 -0.4347826E+00  0.1304348E+00  0.0000000E+00  0.1972549E-02
    1       -6.718776   1.000000
    2       -2.783518   1.000000
    3        2.046785   1.000000
    4        3.133352   1.000000
    5        8.051047   0.000000
    6        9.850577   0.000000
    7       10.457426   0.000000
    8       13.840094   0.000000
 
 -0.3913043E+00  0.1304348E+00  0.0000000E+00  0.1972549E-02
    1       -6.900415   1.000000
    2       -2.492410   1.000000
    3        1.990999   1.000000
    4        3.283434   1.000000
    5        8.107553   0.000000
    6        9.936680   0.000000
    7       10.325365   0.000000
    8       13.716762   0.000000
 
 -0.3478261E+00  0.1304348E+00  0.0000000E+00  0.1972549E-02
    1       -7.197286   1.000000
    2       -1.980740   1.000000
    3        1.984147   1.000000
    4        3.469436   1.000000
    5        8.182958   0.000000
    6       10.041335   0.000000
    7       10.180658   0.000000
    8       13.344072   0.000000
 
 -0.3043478E+00  0.1304348E+00  0.0000000E+00  0.1972549E-02
    1       -7.541269   1.000000
    2       -1.321110   1.000000
    3        2.029665   1.000000
    4        3.685291   1.000000
    5        8.272660   0.000000
    6       10.007861   0.000000
    7       10.143127   0.000000
    8       12.835129   0.000000
 
 -0.2608696E+00  0.1304348E+00  0.0000000E+00  0.1972549E-02
    1       -7.887761   1.000000
    2       -0.566666   1.000000
    3        2.132415   1.000000
    4        3.922392   1.000000
    5        8.369668   0.000000
    6        9.791814   0.000000
    7       10.195865   0.000000
    8       12.307740   0.000000
 
 -0.2173913E+00  0.1304348E+00  0.0000000E+00  0.1972549E-02
    1       -8.211505   1.000000
    2        0.240528   1.000000
    3        2.301942   1.000000
    4        4.168233   1.000000
    5        8.461978   0.000000
    6        9.529709   0.000000
    7       10.124504   0.000000
    8       11.866605   0.000000
 
 -0.1739130E+00  0.1304348E+00  0.0000000E+00  0.1972549E-02
    1       -8.498261   1.000000
    2        1.050175   1.000000
    3        2.561437   1.000000
    4        4.404320   1.000000
    5        8.525225   0.000000
    6        9.241890   0.000000
    7        9.884365   0.000000
    8       11.555419   0.000000
 
 -0.1304348E+00  0.1304348E+00  0.0000000E+00  0.9862743E-03
    1       -8.739848   1.000000
    2        1.777440   1.000000
    3        2.964577   1.000000
    4        4.604038   1.000000
    5        8.508467   0.000000
    6        8.972271   0.000000
    7        9.564015   0.000000
    8       11.287602   0.000000
 
  0.1739130E+00  0.1739130E+00  0.0000000E+00  0.4931372E-03
    1       -8.808507   1.000000
    2        2.603356   1.000000
    3        3.484794   1.000000
    4        3.484794   1.000000
    5        7.266065   0.000000
    6        9.954338   0.000000
    7       10.487534   0.000000
    8       10.487534   0.000000
 
  0.2173913E+00  0.1739130E+00  0.0000000E+00  0.1972549E-02
    1       -8.634509   1.000000
    2        2.008885   1.000000
    3        3.246476   1.000000
    4        3.277755   1.000000
    5        7.223396   0.000000
    6        9.840900   0.000000
    7       10.874730   0.000000
    8       10.913370   0.000000
 
  0.2608696E+00  0.1739130E+00  0.0000000E+00  0.1972549E-02
    1       -8.409733   1.000000
    2        1.258293   1.000000
    3        3.041277   1.000000
    4        3.052713   1.000000
    5        7.355344   0.000000
    6        9.732160   0.000000
    7       11.167994   0.000000
    8       11.194406   0.000000
 
  0.3043478E+00  0.1739130E+00  0.0000000E+00  0.1972549E-02
    1       -8.138448   1.000000
    2        0.465260   1.000000
    3        2.781837   1.000000
    4        2.876379   1.000000
    5        7.556731   0.000000
    6        9.732003   0.000000
    7       11.263606   0.000000
    8       11.414303   0.000000
 
  0.3478261E+00  0.1739130E+00  0.0000000E+00  0.1972549E-02
    1       -7.827703   1.000000
    2       -0.320172   1.000000
    3        2.492589   1.000000
    4        2.756297   1.000000
    5        7.723611   0.000000
    6        9.868954   0.000000
    7       11.329394   0.000000
    8       11.521162   0.000000
 
  0.3913043E+00  0.1739130E+00  0.0000000E+00  0.1972549E-02
    1       -7.489589   1.000000
    2       -1.062937   1.000000
    3        2.209757   1.000000
    4        2.683584   1.000000
    5        7.817473   0.000000
    6       10.071405   0.000000
    7       11.508428   0.000000
    8       11.525313   0.000000
 
  0.4347826E+00  0.1739130E+00  0.0000000E+00  0.1972549E-02
    1       -7.145293   1.000000
    2       -1.727691   1.000000
    3        1.949504   1.000000
    4        2.659434   1.000000
    5        7.864546   0.000000
    6       10.212033   0.000000
    7       11.452793   0.000000
    8       11.905652   0.000000
 
  0.4782609E+00  0.1739130E+00  0.0000000E+00  0.1972549E-02
    1       -6.832454   1.000000
    2       -2.268037   1.000000
    3        1.722270   1.000000
    4        2.683883   1.000000
    5        7.902484   0.000000
    6       10.267776   0.000000
    7       11.332269   0.000000
    8       12.485043   0.000000
 
 -0.4782609E+00  0.1739130E+00  0.0000000E+00  0.1972549E-02
    1       -6.611791   1.000000
    2       -2.617877   1.000000
    3        1.535233   1.000000
    4        2.755938   1.000000
    5        7.954565   0.000000
    6       10.289341   0.000000
    7       11.185755   0.000000
    8       13.113613   0.000000
 
 -0.4347826E+00  0.1739130E+00  0.0000000E+00  0.1972549E-02
    1       -6.553047   1.000000
    2       -2.705002   1.000000
    3        1.393926   1.000000
    4        2.873526   1.000000
    5        8.030480   0.000000
    6       10.314302   0.000000
    7       11.025419   0.000000
    8       13.600555   0.000000
 
 -0.3913043E+00  0.1739130E+00  0.0000000E+00  0.1972549E-02
    1       -6.679883   1.000000
    2       -2.505649   1.000000
    3        1.303266   1.000000
    4        3.033410   1.000000
    5        8.131067   0.000000
    6       10.360474   0.000000
    7       10.853194   0.000000
    8       13.679573   0.000000
 
 -0.3478261E+00  0.1739130E+00  0.0000000E+00  0.1972549E-02
    1       -6.943530   1.000000
    2       -2.071629   1.000000
    3        1.268536   1.000000
    4        3.230801   1.000000
    5        8.251188   0.000000
    6       10.432854   0.000000
    7       10.661555   0.000000
    8       13.311782   0.000000
 
 -0.3043478E+00  0.1739130E+00  0.0000000E+00  0.1972549E-02
    1       -7.273370   1.000000
    2       -1.481005   1.000000
    3        1.297162   1.000000
    4        3.458909   1.000000
    5        8.381057   0.000000
    6       10.436797   0.000000
    7       10.522477   0.000000
    8       12.737046   0.000000
 
 -0.2608696E+00  0.1739130E+00  0.0000000E+00  0.1972549E-02
    1       -7.617994   1.000000
    2       -0.801511   1.000000
    3        1.402562   1.000000
    4        3.707910   1.000000
    5        8.505812   0.000000
    6       10.167251   0.000000
    7       10.589868   0.000000
    8       12.148186   0.000000
 
 -0.2173913E+00  0.1739130E+00  0.0000000E+00  0.1972549E-02
    1       -7.947156   1.000000
    2       -0.098430   1.000000
    3        1.613406   1.000000
    4        3.963589   1.000000
    5        8.602201   0.000000
    6        9.856252   0.000000
    7       10.523477   0.000000
    8       11.720665   0.000000
 
 -0.1739130E+00  0.1739130E+00  0.0000000E+00  0.9862743E-03
    1       -8.243866   1.000000
    2        0.543606   1.000000
    3        1.985366   1.000000
    4        4.205287   1.000000
    5        8.629616   0.000000
    6        9.531463   0.000000
    7       10.230229   0.000000
    8       11.576203   0.000000
 
  0.2173913E+00  0.2173913E+00  0.0000000E+00  0.4931372E-03
    1       -8.478799   1.000000
    2        1.714587   1.000000
    3        3.001392   1.000000
    4        3.001392   1.000000
    5        6.976636   0.000000
    6        9.727416   0.000000
    7       11.317090   0.000000
    8       11.317090   0.000000
 
  0.2608696E+00  0.2173913E+00  0.0000000E+00  0.1972549E-02
    1       -8.272042   1.000000
    2        1.168009   1.000000
    3        2.767740   1.000000
    4        2.789084   1.000000
    5        6.952113   0.000000
    6        9.526046   0.000000
    7       11.644376   0.000000
    8       11.700451   0.000000
 
  0.3043478E+00  0.2173913E+00  0.0000000E+00  0.1972549E-02
    1       -8.017935   1.000000
    2        0.509636   1.000000
    3        2.483751   1.000000
    4        2.617268   1.000000
    5        7.102783   0.000000
    6        9.414217   0.000000
    7       11.764017   0.000000
    8       11.986905   0.000000
 