       N       E                     dE             d eps       ncg     rms          rms(c)
DAV:   1     0.919497021175E+01    0.91950E+01   -0.38238E+03  5840   0.858E+02
DAV:   2    -0.115035074709E+02   -0.20698E+02   -0.20261E+02  9144   0.101E+02
DAV:   3    -0.117909841043E+02   -0.28748E+00   -0.28739E+00  6800   0.139E+01
DAV:   4    -0.117914057790E+02   -0.42167E-03   -0.42167E-03  8744   0.538E-01
DAV:   5    -0.117914061021E+02   -0.32319E-06   -0.32319E-06  6688   0.823E-03    0.351E+00
RMM:   6    -0.113564442481E+02    0.43496E+00   -0.49023E-01  5895   0.445E+00    0.154E+00
RMM:   7    -0.113161506995E+02    0.40294E-01   -0.71037E-02  6212   0.173E+00    0.717E-01
RMM:   8    -0.113109602261E+02    0.51905E-02   -0.19301E-02  6243   0.106E+00    0.817E-02
RMM:   9    -0.113113486392E+02   -0.38841E-03   -0.11353E-03  6585   0.241E-01    0.474E-02
RMM:  10    -0.113112765889E+02    0.72050E-04   -0.83524E-05  6542   0.717E-02    0.153E-02
RMM:  11    -0.113112795537E+02   -0.29648E-05   -0.74814E-05  6359   0.527E-02    0.118E-02
RMM:  12    -0.113112714437E+02    0.81100E-05   -0.96441E-06  6368   0.206E-02    0.538E-04
RMM:  13    -0.113112714783E+02   -0.34621E-07   -0.16459E-07  4323   0.310E-03
   1 F= -.11311271E+02 E0= -.11311271E+02  d E =0.000000E+00
