   2   2   0   0
  0.3148961E+02  0.4465850E-09  0.4465850E-09  0.4465850E-09  0.0000000E+00
  1.000000000000000E-004
  CAR 
 unknown system                          
     13.17490322     -7.14329484  301      4.04018001      1.00000000
     -7.143  0.0000E+00  0.0000E+00
     -7.076  0.0000E+00  0.0000E+00
     -7.008  0.0000E+00  0.0000E+00
     -6.940  0.0000E+00  0.0000E+00
     -6.872  0.0000E+00  0.0000E+00
     -6.805  0.0000E+00  0.0000E+00
     -6.737  0.0000E+00  0.0000E+00
     -6.669  0.0000E+00  0.0000E+00
     -6.601  0.0000E+00  0.0000E+00
     -6.534  0.0000E+00  0.0000E+00
     -6.466  0.0000E+00  0.0000E+00
     -6.398  0.0000E+00  0.0000E+00
     -6.331  0.0000E+00  0.0000E+00
     -6.263  0.0000E+00  0.0000E+00
     -6.195  0.1085E+00  0.8910E-03
     -6.127  0.1993E+00  0.1109E-01
     -6.060  0.2785E+00  0.2705E-01
     -5.992  0.3309E+00  0.4758E-01
     -5.924  0.3901E+00  0.7217E-01
     -5.856  0.4413E+00  0.1003E+00
     -5.789  0.4968E+00  0.1321E+00
     -5.721  0.5469E+00  0.1674E+00
     -5.653  0.6022E+00  0.2063E+00
     -5.586  0.6585E+00  0.2490E+00
     -5.518  0.7185E+00  0.2956E+00
     -5.450  0.7835E+00  0.3464E+00
     -5.382  0.8577E+00  0.4020E+00
     -5.315  0.9408E+00  0.4628E+00
     -5.247  0.1036E+01  0.5296E+00
     -5.179  0.1163E+01  0.6039E+00
     -5.111  0.1324E+01  0.6879E+00
     -5.044  0.1569E+01  0.7848E+00
     -4.976  0.2018E+01  0.9100E+00
     -4.908  0.2006E+01  0.1045E+01
     -4.841  0.2010E+01  0.1181E+01
     -4.773  0.1990E+01  0.1316E+01
     -4.705  0.2039E+01  0.1452E+01
     -4.637  0.2083E+01  0.1592E+01
     -4.570  0.2225E+01  0.1738E+01
     -4.502  0.2638E+01  0.1904E+01
     -4.434  0.0000E+00  0.2000E+01
     -4.366  0.0000E+00  0.2000E+01
     -4.299  0.0000E+00  0.2000E+01
     -4.231  0.0000E+00  0.2000E+01
     -4.163  0.0000E+00  0.2000E+01
     -4.096  0.0000E+00  0.2000E+01
     -4.028  0.0000E+00  0.2000E+01
     -3.960  0.0000E+00  0.2000E+01
     -3.892  0.0000E+00  0.2000E+01
     -3.825  0.0000E+00  0.2000E+01
     -3.757  0.0000E+00  0.2000E+01
     -3.689  0.0000E+00  0.2000E+01
     -3.621  0.0000E+00  0.2000E+01
     -3.554  0.0000E+00  0.2000E+01
     -3.486  0.0000E+00  0.2000E+01
     -3.418  0.0000E+00  0.2000E+01
     -3.351  0.0000E+00  0.2000E+01
     -3.283  0.0000E+00  0.2000E+01
     -3.215  0.0000E+00  0.2000E+01
     -3.147  0.0000E+00  0.2000E+01
     -3.080  0.0000E+00  0.2000E+01
     -3.012  0.0000E+00  0.2000E+01
     -2.944  0.0000E+00  0.2000E+01
     -2.876  0.0000E+00  0.2000E+01
     -2.809  0.0000E+00  0.2000E+01
     -2.741  0.0000E+00  0.2000E+01
     -2.673  0.0000E+00  0.2000E+01
     -2.606  0.0000E+00  0.2000E+01
     -2.538  0.0000E+00  0.2000E+01
     -2.470  0.0000E+00  0.2000E+01
     -2.402  0.0000E+00  0.2000E+01
     -2.335  0.0000E+00  0.2000E+01
     -2.267  0.0000E+00  0.2000E+01
     -2.199  0.0000E+00  0.2000E+01
     -2.131  0.0000E+00  0.2000E+01
     -2.064  0.0000E+00  0.2000E+01
     -1.996  0.0000E+00  0.2000E+01
     -1.928  0.0000E+00  0.2000E+01
     -1.861  0.0000E+00  0.2000E+01
     -1.793  0.0000E+00  0.2000E+01
     -1.725  0.0000E+00  0.2000E+01
     -1.657  0.0000E+00  0.2000E+01
     -1.590  0.0000E+00  0.2000E+01
     -1.522  0.0000E+00  0.2000E+01
     -1.454  0.0000E+00  0.2000E+01
     -1.386  0.0000E+00  0.2000E+01
     -1.319  0.0000E+00  0.2000E+01
     -1.251  0.0000E+00  0.2000E+01
     -1.183  0.1176E+00  0.2001E+01
     -1.116  0.6041E+00  0.2029E+01
     -1.048  0.1255E+01  0.2091E+01
     -0.980  0.2933E+01  0.2244E+01
     -0.912  0.4739E+01  0.2523E+01
     -0.845  0.2367E+01  0.2735E+01
     -0.777  0.1683E+01  0.2869E+01
     -0.709  0.1387E+01  0.2973E+01
     -0.641  0.1168E+01  0.3059E+01
     -0.574  0.9944E+00  0.3132E+01
     -0.506  0.8931E+00  0.3195E+01
     -0.438  0.8045E+00  0.3253E+01
     -0.371  0.7164E+00  0.3304E+01
     -0.303  0.6501E+00  0.3350E+01
     -0.235  0.6048E+00  0.3393E+01
     -0.167  0.5606E+00  0.3432E+01
     -0.100  0.5164E+00  0.3469E+01
     -0.032  0.4707E+00  0.3502E+01
      0.036  0.4414E+00  0.3533E+01
      0.104  0.4169E+00  0.3562E+01
      0.171  0.3925E+00  0.3589E+01
      0.239  0.3687E+00  0.3615E+01
      0.307  0.3416E+00  0.3639E+01
      0.374  0.3155E+00  0.3662E+01
      0.442  0.3005E+00  0.3682E+01
      0.510  0.2864E+00  0.3702E+01
      0.578  0.2720E+00  0.3721E+01
      0.645  0.2562E+00  0.3739E+01
      0.713  0.2406E+00  0.3756E+01
      0.781  0.2236E+00  0.3772E+01
      0.849  0.2093E+00  0.3786E+01
      0.916  0.2004E+00  0.3800E+01
      0.984  0.1910E+00  0.3813E+01
      1.052  0.8064E+00  0.3836E+01
      1.119  0.1083E+01  0.3895E+01
      1.187  0.1883E+01  0.3993E+01
      1.255  0.1793E+01  0.4117E+01
      1.323  0.1508E+01  0.4227E+01
      1.390  0.1463E+01  0.4328E+01
      1.458  0.1419E+01  0.4425E+01
      1.526  0.1314E+01  0.4516E+01
      1.594  0.1300E+01  0.4604E+01
      1.661  0.1355E+01  0.4693E+01
      1.729  0.1441E+01  0.4789E+01
      1.797  0.1457E+01  0.4888E+01
      1.864  0.1611E+01  0.4991E+01
      1.932  0.1709E+01  0.5100E+01
      2.000  0.1986E+01  0.5222E+01
      2.068  0.2089E+01  0.5364E+01
      2.135  0.2103E+01  0.5507E+01
      2.203  0.2044E+01  0.5647E+01
      2.271  0.2028E+01  0.5785E+01
      2.339  0.2000E+01  0.5922E+01
      2.406  0.1950E+01  0.6055E+01
      2.474  0.1926E+01  0.6186E+01
      2.542  0.1919E+01  0.6317E+01
      2.609  0.1878E+01  0.6445E+01
      2.677  0.1849E+01  0.6571E+01
      2.745  0.1828E+01  0.6696E+01
      2.813  0.1786E+01  0.6818E+01
      2.880  0.1778E+01  0.6939E+01
      2.948  0.1766E+01  0.7059E+01
      3.016  0.1753E+01  0.7178E+01
      3.084  0.1730E+01  0.7296E+01
      3.151  0.1718E+01  0.7413E+01
      3.219  0.1354E+01  0.7518E+01
      3.287  0.1133E+01  0.7602E+01
      3.354  0.9595E+00  0.7673E+01
      3.422  0.8372E+00  0.7733E+01
      3.490  0.7330E+00  0.7786E+01
      3.558  0.6443E+00  0.7833E+01
      3.625  0.5650E+00  0.7874E+01
      3.693  0.4782E+00  0.7909E+01
      3.761  0.4076E+00  0.7939E+01
      3.829  0.3374E+00  0.7965E+01
      3.896  0.2438E+00  0.7984E+01
      3.964  0.1318E+00  0.7996E+01
      4.032  0.0000E+00  0.8000E+01
      4.099  0.0000E+00  0.8000E+01
      4.167  0.0000E+00  0.8000E+01
      4.235  0.0000E+00  0.8000E+01
      4.303  0.0000E+00  0.8000E+01
      4.370  0.0000E+00  0.8000E+01
      4.438  0.0000E+00  0.8000E+01
      4.506  0.0000E+00  0.8000E+01
      4.574  0.0000E+00  0.8000E+01
      4.641  0.0000E+00  0.8000E+01
      4.709  0.0000E+00  0.8000E+01
      4.777  0.0000E+00  0.8000E+01
      4.844  0.0000E+00  0.8000E+01
      4.912  0.0000E+00  0.8000E+01
      4.980  0.0000E+00  0.8000E+01
      5.048  0.1220E-03  0.8000E+01
      5.115  0.8445E-03  0.8000E+01
      5.183  0.1144E-01  0.8000E+01
      5.251  0.4918E-01  0.8002E+01
      5.319  0.1019E+00  0.8007E+01
      5.386  0.2597E+00  0.8018E+01
      5.454  0.4311E+00  0.8042E+01
      5.522  0.5607E+00  0.8075E+01
      5.589  0.7084E+00  0.8118E+01
      5.657  0.8686E+00  0.8172E+01
      5.725  0.1010E+01  0.8235E+01
      5.793  0.1170E+01  0.8309E+01
      5.860  0.1329E+01  0.8394E+01
      5.928  0.1470E+01  0.8488E+01
      5.996  0.1645E+01  0.8594E+01
      6.064  0.1872E+01  0.8712E+01
      6.131  0.2293E+01  0.8852E+01
      6.199  0.2604E+01  0.9020E+01
      6.267  0.2532E+01  0.9199E+01
      6.334  0.2018E+01  0.9353E+01
      6.402  0.1804E+01  0.9481E+01
      6.470  0.1705E+01  0.9602E+01
      6.538  0.1446E+01  0.9708E+01
      6.605  0.1265E+01  0.9800E+01
      6.673  0.1099E+01  0.9880E+01
      6.741  0.9527E+00  0.9949E+01
      6.809  0.9591E+00  0.1001E+02
      6.876  0.1000E+01  0.1008E+02
      6.944  0.1117E+01  0.1015E+02
      7.012  0.1282E+01  0.1023E+02
      7.079  0.1349E+01  0.1033E+02
      7.147  0.1275E+01  0.1042E+02
      7.215  0.1166E+01  0.1050E+02
      7.283  0.1176E+01  0.1058E+02
      7.350  0.1217E+01  0.1066E+02
      7.418  0.1208E+01  0.1074E+02
      7.486  0.1560E+01  0.1083E+02
      7.554  0.3133E+01  0.1098E+02
      7.621  0.2667E+01  0.1118E+02
      7.689  0.2790E+01  0.1137E+02
      7.757  0.2087E+01  0.1153E+02
      7.824  0.1717E+01  0.1166E+02
      7.892  0.1663E+01  0.1177E+02
      7.960  0.1593E+01  0.1188E+02
      8.028  0.1512E+01  0.1199E+02
      8.095  0.1442E+01  0.1209E+02
      8.163  0.1286E+01  0.1218E+02
      8.231  0.1338E+01  0.1226E+02
      8.299  0.1479E+01  0.1236E+02
      8.366  0.1751E+01  0.1247E+02
      8.434  0.1907E+01  0.1259E+02
      8.502  0.2046E+01  0.1273E+02
      8.569  0.2095E+01  0.1287E+02
      8.637  0.1854E+01  0.1300E+02
      8.705  0.1985E+01  0.1313E+02
      8.773  0.1712E+01  0.1326E+02
      8.840  0.1779E+01  0.1338E+02
      8.908  0.1715E+01  0.1350E+02
      8.976  0.1519E+01  0.1360E+02
      9.044  0.1486E+01  0.1371E+02
      9.111  0.1390E+01  0.1380E+02
      9.179  0.1329E+01  0.1390E+02
      9.247  0.1391E+01  0.1399E+02
      9.314  0.1386E+01  0.1408E+02
      9.382  0.1582E+01  0.1418E+02
      9.450  0.1049E+01  0.1427E+02
      9.518  0.1002E+01  0.1433E+02
      9.585  0.1023E+01  0.1440E+02
      9.653  0.1124E+01  0.1448E+02
      9.721  0.1233E+01  0.1456E+02
      9.789  0.1254E+01  0.1464E+02
      9.856  0.1396E+01  0.1473E+02
      9.924  0.1562E+01  0.1483E+02
      9.992  0.1412E+01  0.1493E+02
     10.059  0.1311E+01  0.1502E+02
     10.127  0.1187E+01  0.1511E+02
     10.195  0.1071E+01  0.1518E+02
     10.263  0.9857E+00  0.1525E+02
     10.330  0.9317E+00  0.1532E+02
     10.398  0.8899E+00  0.1538E+02
     10.466  0.8637E+00  0.1544E+02
     10.534  0.8362E+00  0.1550E+02
     10.601  0.9680E+00  0.1555E+02
     10.669  0.1024E+01  0.1562E+02
     10.737  0.7703E+00  0.1568E+02
     10.804  0.5316E+00  0.1572E+02
     10.872  0.3878E+00  0.1575E+02
     10.940  0.3662E+00  0.1578E+02
     11.008  0.3411E+00  0.1580E+02
     11.075  0.3159E+00  0.1582E+02
     11.143  0.2939E+00  0.1584E+02
     11.211  0.2643E+00  0.1586E+02
     11.279  0.2617E+00  0.1588E+02
     11.346  0.2467E+00  0.1590E+02
     11.414  0.2191E+00  0.1591E+02
     11.482  0.1888E+00  0.1593E+02
     11.549  0.1653E+00  0.1594E+02
     11.617  0.1466E+00  0.1595E+02
     11.685  0.1305E+00  0.1596E+02
     11.753  0.1196E+00  0.1597E+02
     11.820  0.1067E+00  0.1598E+02
     11.888  0.9975E-01  0.1598E+02
     11.956  0.9845E-01  0.1599E+02
     12.024  0.5743E-01  0.1600E+02
     12.091  0.2836E-01  0.1600E+02
     12.159  0.9439E-02  0.1600E+02
     12.227  0.6712E-03  0.1600E+02
     12.294  0.0000E+00  0.1600E+02
     12.362  0.0000E+00  0.1600E+02
     12.430  0.0000E+00  0.1600E+02
     12.498  0.0000E+00  0.1600E+02
     12.565  0.0000E+00  0.1600E+02
     12.633  0.0000E+00  0.1600E+02
     12.701  0.0000E+00  0.1600E+02
     12.769  0.0000E+00  0.1600E+02
     12.836  0.0000E+00  0.1600E+02
     12.904  0.0000E+00  0.1600E+02
     12.972  0.0000E+00  0.1600E+02
     13.039  0.0000E+00  0.1600E+02
     13.107  0.0000E+00  0.1600E+02
     13.175  0.0000E+00  0.1600E+02
