    2    2    1    1
  0.3148961E+02  0.4465849E-09  0.4465849E-09  0.4465849E-09  0.0000000E+00
  1.000000000000000E-004
  CAR 
 unknown system                          
      8    195      8
 
  0.0000000E+00  0.0000000E+00  0.0000000E+00  0.1714678E-03
    1       -6.219740   1.000000
    2        4.022094   1.000000
    3        4.022094   1.000000
    4        4.022094   1.000000
    5        5.006088   0.000000
    6        7.067404   0.000000
    7        7.067404   0.000000
    8        7.067404   0.000000
 
  0.5555556E-01  0.0000000E+00  0.0000000E+00  0.1371742E-02
    1       -6.193910   1.000000
    2        3.554881   1.000000
    3        3.984642   1.000000
    4        3.984642   1.000000
    5        5.352602   0.000000
    6        7.126209   0.000000
    7        7.126209   0.000000
    8        7.131094   0.000000
 
  0.1111111E+00  0.0000000E+00  0.0000000E+00  0.1371742E-02
    1       -6.117258   1.000000
    2        2.777552   1.000000
    3        3.884272   1.000000
    4        3.884272   1.000000
    5        5.684380   0.000000
    6        7.281983   0.000000
    7        7.281983   0.000000
    8        7.437100   0.000000
 
  0.1666667E+00  0.0000000E+00  0.0000000E+00  0.1371742E-02
    1       -5.992759   1.000000
    2        1.975660   1.000000
    3        3.747625   1.000000
    4        3.747626   1.000000
    5        5.718664   0.000000
    6        7.481462   0.000000
    7        7.481462   0.000000
    8        8.046424   0.000000
 
  0.2222222E+00  0.0000000E+00  0.0000000E+00  0.1371742E-02
    1       -5.826086   1.000000
    2        1.206069   1.000000
    3        3.600985   1.000000
    4        3.600985   1.000000
    5        5.606265   0.000000
    6        7.657824   0.000000
    7        7.657824   0.000000
    8        8.807561   0.000000
 
  0.2777778E+00  0.0000000E+00  0.0000000E+00  0.1371742E-02
    1       -5.627159   1.000000
    2        0.498544   1.000000
    3        3.463553   1.000000
    4        3.463553   1.000000
    5        5.461476   0.000000
    6        7.760139   0.000000
    7        7.760139   0.000000
    8        9.607841   0.000000
 
  0.3333333E+00  0.0000000E+00  0.0000000E+00  0.1371742E-02
    1       -5.412725   1.000000
    2       -0.119449   1.000000
    3        3.347677   1.000000
    4        3.347677   1.000000
    5        5.329404   0.000000
    6        7.784085   0.000000
    7        7.784085   0.000000
    8       10.320744   0.000000
 
  0.3888889E+00  0.0000000E+00  0.0000000E+00  0.1371742E-02
    1       -5.209923   1.000000
    2       -0.614309   1.000000
    3        3.260836   1.000000
    4        3.260836   1.000000
    5        5.228052   0.000000
    6        7.763534   0.000000
    7        7.763534   0.000000
    8       10.595280   0.000000
 
  0.4444444E+00  0.0000000E+00  0.0000000E+00  0.1371742E-02
    1       -5.058338   1.000000
    2       -0.942529   1.000000
    3        3.207290   1.000000
    4        3.207290   1.000000
    5        5.165126   0.000000
    6        7.735858   0.000000
    7        7.735858   0.000000
    8       10.581101   0.000000
 
  0.5000000E+00  0.0000000E+00  0.0000000E+00  0.6858711E-03
    1       -5.001041   1.000000
    2       -1.058941   1.000000
    3        3.189219   1.000000
    4        3.189219   1.000000
    5        5.143848   0.000000
    6        7.724171   0.000000
    7        7.724171   0.000000
    8       10.561985   0.000000
 
  0.5555556E-01  0.5555556E-01  0.0000000E+00  0.1028807E-02
    1       -6.185272   1.000000
    2        3.530061   1.000000
    3        3.905754   1.000000
    4        3.905754   1.000000
    5        5.490620   0.000000
    6        6.957657   0.000000
    7        7.234465   0.000000
    8        7.234465   0.000000
 
  0.1111111E+00  0.5555556E-01  0.0000000E+00  0.4115226E-02
    1       -6.125482   1.000000
    2        2.937562   1.000000
    3        3.774793   1.000000
    4        3.834187   1.000000
    5        5.836992   0.000000
    6        6.936415   0.000000
    7        7.432207   0.000000
    8        7.489013   0.000000
 
  0.1666667E+00  0.5555556E-01  0.0000000E+00  0.4115226E-02
    1       -6.016777   1.000000
    2        2.186914   1.000000
    3        3.621132   1.000000
    4        3.729643   1.000000
    5        5.955743   0.000000
    6        7.083633   0.000000
    7        7.665610   0.000000
    8        7.964363   0.000000
 
  0.2222222E+00  0.5555556E-01  0.0000000E+00  0.4115226E-02
    1       -5.863789   1.000000
    2        1.429611   1.000000
    3        3.469368   1.000000
    4        3.582662   1.000000
    5        5.879842   0.000000
    6        7.309445   0.000000
    7        7.869183   0.000000
    8        8.574574   0.000000
 
  0.2777778E+00  0.5555556E-01  0.0000000E+00  0.4115226E-02
    1       -5.674840   1.000000
    2        0.714443   1.000000
    3        3.336273   1.000000
    4        3.421227   1.000000
    5        5.744356   0.000000
    6        7.496449   0.000000
    7        7.987321   0.000000
    8        9.199407   0.000000
 
  0.3333333E+00  0.5555556E-01  0.0000000E+00  0.4115226E-02
    1       -5.464026   1.000000
    2        0.073602   1.000000
    3        3.232134   1.000000
    4        3.267211   1.000000
    5        5.609753   0.000000
    6        7.595076   0.000000
    7        8.007428   0.000000
    8        9.794862   0.000000
 
  0.3888889E+00  0.5555556E-01  0.0000000E+00  0.4115226E-02
    1       -5.254546   1.000000
    2       -0.459771   1.000000
    3        3.134565   1.000000
    4        3.162810   1.000000
    5        5.499532   0.000000
    6        7.626270   0.000000
    7        7.962138   0.000000
    8       10.326460   0.000000
 
  0.4444444E+00  0.5555556E-01  0.0000000E+00  0.4115226E-02
    1       -5.081894   1.000000
    2       -0.844420   1.000000
    3        3.031865   1.000000
    4        3.131156   1.000000
    5        5.423860   0.000000
    6        7.635797   0.000000
    7        7.894445   0.000000
    8       10.611927   0.000000
 
  0.5000000E+00  0.5555556E-01  0.0000000E+00  0.4115226E-02
    1       -4.989784   1.000000
    2       -1.033401   1.000000
    3        2.964454   1.000000
    4        3.137909   1.000000
    5        5.387322   0.000000
    6        7.656329   0.000000
    7        7.834176   0.000000
    8       10.670927   0.000000
 
 -0.4444444E+00  0.5555556E-01  0.0000000E+00  0.4115226E-02
    1       -5.009135   1.000000
    2       -0.994441   1.000000
    3        2.935621   1.000000
    4        3.182153   1.000000
    5        5.391690   0.000000
    6        7.701463   0.000000
    7        7.794606   0.000000
    8       10.681523   0.000000
 
 -0.3888889E+00  0.5555556E-01  0.0000000E+00  0.4115226E-02
    1       -5.132950   1.000000
    2       -0.734887   1.000000
    3        2.947207   1.000000
    4        3.261397   1.000000
    5        5.436784   0.000000
    6        7.768331   0.000000
    7        7.773976   0.000000
    8       10.634459   0.000000
 
 -0.3333333E+00  0.5555556E-01  0.0000000E+00  0.4115226E-02
    1       -5.322627   1.000000
    2       -0.295329   1.000000
    3        2.999777   1.000000
    4        3.371427   1.000000
    5        5.520248   0.000000
    6        7.755249   0.000000
    7        7.836754   0.000000
    8       10.313339   0.000000
 
 -0.2777778E+00  0.5555556E-01  0.0000000E+00  0.4115226E-02
    1       -5.535850   1.000000
    2        0.277661   1.000000
    3        3.092468   1.000000
    4        3.505580   1.000000
    5        5.636019   0.000000
    6        7.706905   0.000000
    7        7.864200   0.000000
    8        9.699762   0.000000
 
 -0.2222222E+00  0.5555556E-01  0.0000000E+00  0.4115226E-02
    1       -5.741393   1.000000
    2        0.945367   1.000000
    3        3.222629   1.000000
    4        3.653545   1.000000
    5        5.769858   0.000000
    6        7.597566   0.000000
    7        7.788153   0.000000
    8        9.034269   0.000000
 
 -0.1666667E+00  0.5555556E-01  0.0000000E+00  0.4115226E-02
    1       -5.919509   1.000000
    2        1.674380   1.000000
    3        3.385327   1.000000
    4        3.799525   1.000000
    5        5.886312   0.000000
    6        7.429767   0.000000
    7        7.569306   0.000000
    8        8.409229   0.000000
 
 -0.1111111E+00  0.5555556E-01  0.0000000E+00  0.4115226E-02
    1       -6.058391   1.000000
    2        2.424792   1.000000
    3        3.573831   1.000000
    4        3.920705   1.000000
    5        5.894531   0.000000
    6        7.253497   0.000000
    7        7.281516   0.000000
    8        7.866886   0.000000
 
 -0.5555556E-01  0.5555556E-01  0.0000000E+00  0.2057613E-02
    1       -6.151092   1.000000
    2        3.116381   1.000000
    3        3.785783   1.000000
    4        3.989544   1.000000
    5        5.662417   0.000000
    6        7.119374   0.000000
    7        7.136011   0.000000
    8        7.434575   0.000000
 
  0.1111111E+00  0.1111111E+00  0.0000000E+00  0.1028807E-02
    1       -6.082761   1.000000
    2        2.758648   1.000000
    3        3.620361   1.000000
    4        3.620361   1.000000
    5        6.156107   0.000000
    6        6.750837   0.000000
    7        7.670701   0.000000
    8        7.670701   0.000000
 
  0.1666667E+00  0.1111111E+00  0.0000000E+00  0.4115226E-02
    1       -5.990633   1.000000
    2        2.223897   1.000000
    3        3.451548   1.000000
    4        3.483245   1.000000
    5        6.294416   0.000000
    6        6.790120   0.000000
    7        7.944993   0.000000
    8        8.032416   0.000000
 
  0.2222222E+00  0.1111111E+00  0.0000000E+00  0.4115226E-02
    1       -5.852902   1.000000
    2        1.559816   1.000000
    3        3.291930   1.000000
    4        3.329125   1.000000
    5        6.290963   0.000000
    6        6.947128   0.000000
    7        8.191447   0.000000
    8        8.444267   0.000000
 
  0.2777778E+00  0.1111111E+00  0.0000000E+00  0.4115226E-02
    1       -5.676538   1.000000
    2        0.885177   1.000000
    3        3.141746   1.000000
    4        3.157096   1.000000
    5        6.203899   0.000000
    6        7.184153   0.000000
    7        8.348101   0.000000
    8        8.729348   0.000000
 
  0.3333333E+00  0.1111111E+00  0.0000000E+00  0.4115226E-02
    1       -5.473433   1.000000
    2        0.254191   1.000000
    3        2.947221   1.000000
    4        3.056556   1.000000
    5        6.087301   0.000000
    6        7.391495   0.000000
    7        8.388394   0.000000
    8        9.017469   0.000000
 
  0.3888889E+00  0.1111111E+00  0.0000000E+00  0.4115226E-02
    1       -5.263287   1.000000
    2       -0.293124   1.000000
    3        2.767786   1.000000
    4        2.995621   1.000000
    5        5.978811   0.000000
    6        7.497193   0.000000
    7        8.338443   0.000000
    8        9.465148   0.000000
 
  0.4444444E+00  0.1111111E+00  0.0000000E+00  0.4115226E-02
    1       -5.077074   1.000000
    2       -0.714828   1.000000
    3        2.617445   1.000000
    4        2.976695   1.000000
    5        5.896848   0.000000
    6        7.538670   0.000000
    7        8.245792   0.000000
    8       10.042248   0.000000
 
  0.5000000E+00  0.1111111E+00  0.0000000E+00  0.4115226E-02
    1       -4.956253   1.000000
    2       -0.963331   1.000000
    3        2.504829   1.000000
    4        2.999980   1.000000
    5        5.849980   0.000000
    6        7.572995   0.000000
    7        8.147455   0.000000
    8       10.597626   0.000000
 
 -0.4444444E+00  0.1111111E+00  0.0000000E+00  0.4115226E-02
    1       -4.938180   1.000000
    2       -0.998574   1.000000
    3        2.435652   1.000000
    4        3.063800   1.000000
    5        5.841648   0.000000
    6        7.629481   0.000000
    7        8.062529   0.000000
    8       10.870232   0.000000
 
 -0.3888889E+00  0.1111111E+00  0.0000000E+00  0.4115226E-02
    1       -5.029256   1.000000
    2       -0.814026   1.000000
    3        2.414072   1.000000
    4        3.164530   1.000000
    5        5.871996   0.000000
    6        7.714419   0.000000
    7        7.993920   0.000000
    8       10.721979   0.000000
 
 -0.3333333E+00  0.1111111E+00  0.0000000E+00  0.4115226E-02
    1       -5.199297   1.000000
    2       -0.442669   1.000000
    3        2.443584   1.000000
    4        3.296258   1.000000
    5        5.938216   0.000000
    6        7.814256   0.000000
    7        7.928929   0.000000
    8       10.197016   0.000000
 
 -0.2777778E+00  0.1111111E+00  0.0000000E+00  0.4115226E-02
    1       -5.405670   1.000000
    2        0.066162   1.000000
    3        2.527877   1.000000
    4        3.449910   1.000000
    5        6.033068   0.000000
    6        7.840278   0.000000
    7        7.884819   0.000000
    8        9.575474   0.000000
 
 -0.2222222E+00  0.1111111E+00  0.0000000E+00  0.4115226E-02
    1       -5.613550   1.000000
    2        0.664319   1.000000
    3        2.672303   1.000000
    4        3.611940   1.000000
    5        6.139363   0.000000
    6        7.700725   0.000000
    7        7.829717   0.000000
    8        9.059676   0.000000
 
 -0.1666667E+00  0.1111111E+00  0.0000000E+00  0.4115226E-02
    1       -5.800038   1.000000
    2        1.302493   1.000000
    3        2.886934   1.000000
    4        3.762501   1.000000
    5        6.212625   0.000000
    6        7.517733   0.000000
    7        7.584710   0.000000
    8        8.704198   0.000000
 
 -0.1111111E+00  0.1111111E+00  0.0000000E+00  0.2057613E-02
    1       -5.951072   1.000000
    2        1.916211   1.000000
    3        3.188973   1.000000
    4        3.874874   1.000000
    5        6.149453   0.000000
    6        7.336600   0.000000
    7        7.346123   0.000000
    8        8.339960   0.000000
 
  0.1666667E+00  0.1666667E+00  0.0000000E+00  0.1028807E-02
    1       -5.915276   1.000000
    2        1.978146   1.000000
    3        3.270559   1.000000
    4        3.270559   1.000000
    5        6.197247   0.000000
    6        6.961386   0.000000
    7        8.268094   0.000000
    8        8.268094   0.000000
 
  0.2222222E+00  0.1666667E+00  0.0000000E+00  0.4115226E-02
    1       -5.793775   1.000000
    2        1.503395   1.000000
    3        3.092784   1.000000
    4        3.101871   1.000000
    5        6.147632   0.000000
    6        7.047152   0.000000
    7        8.559185   0.000000
    8        8.573144   0.000000
 
  0.2777778E+00  0.1666667E+00  0.0000000E+00  0.4115226E-02
    1       -5.631979   1.000000
    2        0.937359   1.000000
    3        2.880016   1.000000
    4        2.961012   1.000000
    5        6.203579   0.000000
    6        7.118238   0.000000
    7        8.612271   0.000000
    8        8.792090   0.000000
 
  0.3333333E+00  0.1666667E+00  0.0000000E+00  0.4115226E-02
    1       -5.440033   1.000000
    2        0.365759   1.000000
    3        2.641246   1.000000
    4        2.857495   1.000000
    5        6.224886   0.000000
    6        7.331508   0.000000
    7        8.580648   0.000000
    8        8.879784   0.000000
 
  0.3888889E+00  0.1666667E+00  0.0000000E+00  0.4115226E-02
    1       -5.234701   1.000000
    2       -0.157629   1.000000
    3        2.408072   1.000000
    4        2.796731   1.000000
    5        6.185494   0.000000
    6        7.599433   0.000000
    7        8.700546   0.000000
    8        8.848625   0.000000
 
  0.4444444E+00  0.1666667E+00  0.0000000E+00  0.4115226E-02
    1       -5.042666   1.000000
    2       -0.586090   1.000000
    3        2.203248   1.000000
    4        2.781215   1.000000
    5        6.138321   0.000000
    6        7.734644   0.000000
    7        8.748792   0.000000
    8        9.126395   0.000000
 
  0.5000000E+00  0.1666667E+00  0.0000000E+00  0.4115226E-02
    1       -4.901464   1.000000
    2       -0.870755   1.000000
    3        2.040423   1.000000
    4        2.811216   1.000000
    5        6.115399   0.000000
    6        7.772295   0.000000
    7        8.625740   0.000000
    8        9.777168   0.000000
 
 -0.4444444E+00  0.1666667E+00  0.0000000E+00  0.4115226E-02
    1       -4.850444   1.000000
    2       -0.966891   1.000000
    3        1.928365   1.000000
    4        2.884940   1.000000
    5        6.127962   0.000000
    6        7.802826   0.000000
    7        8.504925   0.000000
    8       10.493073   0.000000
 
 -0.3888889E+00  0.1666667E+00  0.0000000E+00  0.4115226E-02
    1       -4.906849   1.000000
    2       -0.856435   1.000000
    3        1.874122   1.000000
    4        2.998426   1.000000
    5        6.176737   0.000000
    6        7.860257   0.000000
    7        8.392820   0.000000
    8       10.733014   0.000000
 
 -0.3333333E+00  0.1666667E+00  0.0000000E+00  0.4115226E-02
    1       -5.051482   1.000000
    2       -0.563199   1.000000
    3        1.885341   1.000000
    4        3.144974   1.000000
    5        6.255648   0.000000
    6        7.946996   0.000000
    7        8.278150   0.000000
    8       10.091819   0.000000
 
 -0.2777778E+00  0.1666667E+00  0.0000000E+00  0.4115226E-02
    1       -5.244660   1.000000
    2       -0.138778   1.000000
    3        1.972922   1.000000
    4        3.314109   1.000000
    5        6.350525   0.000000
    6        8.031898   0.000000
    7        8.134044   0.000000
    8        9.413372   0.000000
 
 -0.2222222E+00  0.1666667E+00  0.0000000E+00  0.4115226E-02
    1       -5.449512   1.000000
    2        0.355948   1.000000
    3        2.154685   1.000000
    4        3.489954   1.000000
    5        6.429793   0.000000
    6        7.937702   0.000000
    7        7.998634   0.000000
    8        8.937727   0.000000
 
 -0.1666667E+00  0.1666667E+00  0.0000000E+00  0.2057613E-02
    1       -5.640075   1.000000
    2        0.855670   1.000000
    3        2.455797   1.000000
    4        3.649443   1.000000
    5        6.418390   0.000000
    6        7.709948   0.000000
    7        7.756276   0.000000
    8        8.795782   0.000000
 
  0.2222222E+00  0.2222222E+00  0.0000000E+00  0.1028807E-02
    1       -5.688802   1.000000
    2        1.224545   1.000000
    3        2.924003   1.000000
    4        2.924003   1.000000
    5        5.911198   0.000000
    6        7.067912   0.000000
    7        8.954414   0.000000
    8        8.954414   0.000000
 
  0.2777778E+00  0.2222222E+00  0.0000000E+00  0.4115226E-02
    1       -5.542978   1.000000
    2        0.805024   1.000000
    3        2.729195   1.000000
    4        2.774660   1.000000
    5        5.873913   0.000000
    6        6.988713   0.000000
    7        9.094901   0.000000
    8        9.263053   0.000000
 
  0.3333333E+00  0.2222222E+00  0.0000000E+00  0.4115226E-02
    1       -5.365077   1.000000
    2        0.336921   1.000000
    3        2.469172   1.000000
    4        2.663900   1.000000
    5        5.968100   0.000000
    6        7.022610   0.000000
    7        8.987077   0.000000
    8        9.432124   0.000000
 
  0.3888889E+00  0.2222222E+00  0.0000000E+00  0.4115226E-02
    1       -5.169583   1.000000
    2       -0.118561   1.000000
    3        2.181867   1.000000
    4        2.597567   1.000000
    5        6.032062   0.000000
    6        7.310688   0.000000
    7        8.853804   0.000000
    8        9.449258   0.000000
 
  0.4444444E+00  0.2222222E+00  0.0000000E+00  0.4115226E-02
    1       -4.979488   1.000000
    2       -0.512917   1.000000
    3        1.911290   1.000000
    4        2.578533   1.000000
    5        6.040595   0.000000
    6        7.804489   0.000000
    7        8.780420   0.000000
    8        9.362596   0.000000
 
  0.5000000E+00  0.2222222E+00  0.0000000E+00  0.4115226E-02
    1       -4.827840   1.000000
    2       -0.798164   1.000000
    3        1.685020   1.000000
    4        2.607377   1.000000
    5        6.051517   0.000000
    6        8.237613   0.000000
    7        8.957039   0.000000
    8        9.228285   0.000000
 
 -0.4444444E+00  0.2222222E+00  0.0000000E+00  0.4115226E-02
    1       -4.752335   1.000000
    2       -0.928922   1.000000
    3        1.519402   1.000000
    4        2.682570   1.000000
    5        6.094978   0.000000
    6        8.349647   0.000000
    7        9.079972   0.000000
    8        9.589010   0.000000
 
 -0.3888889E+00  0.2222222E+00  0.0000000E+00  0.4115226E-02
    1       -4.776558   1.000000
    2       -0.880866   1.000000
    3        1.426865   1.000000
    4        2.800302   1.000000
    5        6.177331   0.000000
    6        8.376967   0.000000
    7        8.926592   0.000000
    8       10.346784   0.000000
 
 -0.3333333E+00  0.2222222E+00  0.0000000E+00  0.4115226E-02
    1       -4.892075   1.000000
    2       -0.670319   1.000000
    3        1.421654   1.000000
    4        2.953869   1.000000
    5        6.291215   0.000000
    6        8.421795   0.000000
    7        8.753740   0.000000
    8       10.014240   0.000000
 
 -0.2777778E+00  0.2222222E+00  0.0000000E+00  0.4115226E-02
    1       -5.065632   1.000000
    2       -0.350241   1.000000
    3        1.524565   1.000000
    4        3.132450   1.000000
    5        6.414405   0.000000
    6        8.482831   0.000000
    7        8.529659   0.000000
    8        9.282600   0.000000
 
 -0.2222222E+00  0.2222222E+00  0.0000000E+00  0.2057613E-02
    1       -5.260728   1.000000
    2        0.010976   1.000000
    3        1.763187   1.000000
    4        3.319360   1.000000
    5        6.495678   0.000000
    6        8.241445   0.000000
    7        8.367418   0.000000
    8        8.865415   0.000000
 
  0.2777778E+00  0.2777778E+00  0.0000000E+00  0.1028807E-02
    1       -5.413857   1.000000
    2        0.514568   1.000000
    3        2.615744   1.000000
    4        2.615744   1.000000
    5        5.650304   0.000000
    6        6.766101   0.000000
    7        9.689852   0.000000
    8        9.689854   0.000000
 
  0.3333333E+00  0.2777778E+00  0.0000000E+00  0.4115226E-02
    1       -5.252392   1.000000
    2        0.150151   1.000000
    3        2.420942   1.000000
    4        2.495304   1.000000
    5        5.645520   0.000000
    6        6.623721   0.000000
    7        9.784569   0.000000
    8        9.985257   0.000000
 
  0.3888889E+00  0.2777778E+00  0.0000000E+00  0.4115226E-02
    1       -5.071438   1.000000
    2       -0.220957   1.000000
    3        2.132090   1.000000
    4        2.419854   1.000000
    5        5.760063   0.000000
    6        6.694489   0.000000
    7        9.660034   0.000000
    8       10.094721   0.000000
 
  0.4444444E+00  0.2777778E+00  0.0000000E+00  0.4115226E-02
    1       -4.891129   1.000000
    2       -0.551586   1.000000
    3        1.810930   1.000000
    4        2.392808   1.000000
    5        5.828571   0.000000
    6        7.079921   0.000000
    7        9.515581   0.000000
    8       10.049573   0.000000
 
  0.5000000E+00  0.2777778E+00  0.0000000E+00  0.4115226E-02
    1       -4.740245   1.000000
    2       -0.800414   1.000000
    3        1.515567   1.000000
    4        2.415176   1.000000
    5        5.864020   0.000000
    6        7.700837   0.000000
    7        9.395067   0.000000
    8        9.918933   0.000000
 
 -0.4444444E+00  0.2777778E+00  0.0000000E+00  0.4115226E-02
    1       -4.652518   1.000000
    2       -0.929600   1.000000
    3        1.283469   1.000000
    4        2.485850   1.000000
    5        5.922426   0.000000
    6        8.436933   0.000000
    7        9.332849   0.000000
    8        9.748534   0.000000
 
 -0.3888889E+00  0.2777778E+00  0.0000000E+00  0.4115226E-02
    1       -4.652529   1.000000
    2       -0.918499   1.000000
    3        1.141152   1.000000
    4        2.601431   1.000000
    5        6.021583   0.000000
    6        9.017918   0.000000
    7        9.545374   0.000000
    8        9.547826   0.000000
 
 -0.3333333E+00  0.2777778E+00  0.0000000E+00  0.4115226E-02
    1       -4.739429   1.000000
    2       -0.782806   1.000000
    3        1.114833   1.000000
    4        2.755643   1.000000
    5        6.157645   0.000000
    6        9.120916   0.000000
    7        9.291457   0.000000
    8        9.928382   0.000000
 
 -0.2777778E+00  0.2777778E+00  0.0000000E+00  0.2057613E-02
    1       -4.888022   1.000000
    2       -0.574079   1.000000
    3        1.234984   1.000000
    4        2.938098   1.000000
    5        6.308094   0.000000
    6        8.944040   0.000000
    7        9.104047   0.000000
    8        9.260491   0.000000
 
  0.3333333E+00  0.3333333E+00  0.0000000E+00  0.1028807E-02
    1       -5.109146   1.000000
    2       -0.131121   1.000000
    3        2.364024   1.000000
    4        2.364024   1.000000
    5        5.458317   0.000000
    6        6.339617   0.000000
    7       10.450040   0.000000
    8       10.450065   0.000000
 
  0.3888889E+00  0.3333333E+00  0.0000000E+00  0.4115226E-02
    1       -4.947242   1.000000
    2       -0.432177   1.000000
    3        2.181893   1.000000
    4        2.277467   1.000000
    5        5.491033   0.000000
    6        6.220559   0.000000
    7       10.550498   0.000000
    8       10.719641   0.000000
 
  0.4444444E+00  0.3333333E+00  0.0000000E+00  0.4115226E-02
    1       -4.784851   1.000000
    2       -0.700294   1.000000
    3        1.884827   1.000000
    4        2.239681   1.000000
    5        5.610814   0.000000
    6        6.380796   0.000000
    7       10.433005   0.000000
    8       10.765685   0.000000
 
  0.5000000E+00  0.3333333E+00  0.0000000E+00  0.4115226E-02
    1       -4.647206   1.000000
    2       -0.897518   1.000000
    3        1.553935   1.000000
    4        2.252206   1.000000
    5        5.675108   0.000000
    6        6.877665   0.000000
    7       10.291421   0.000000
    8       10.660589   0.000000
 
 -0.4444444E+00  0.3333333E+00  0.0000000E+00  0.4115226E-02
    1       -4.562806   1.000000
    2       -0.996447   1.000000
    3        1.261492   1.000000
    4        2.314432   1.000000
    5        5.740018   0.000000
    6        7.582638   0.000000
    7       10.165073   0.000000
    8       10.468827   0.000000
 
 -0.3888889E+00  0.3333333E+00  0.0000000E+00  0.4115226E-02
    1       -4.552521   1.000000
    2       -0.989410   1.000000
    3        1.060733   1.000000
    4        2.423501   1.000000
    5        5.844261   0.000000
    6        8.403528   0.000000
    7       10.062392   0.000000
    8       10.195912   0.000000
 
 -0.3333333E+00  0.3333333E+00  0.0000000E+00  0.2057613E-02
    1       -4.617512   1.000000
    2       -0.901506   1.000000
    3        0.998305   1.000000
    4        2.573755   1.000000
    5        5.989925   0.000000
    6        9.252554   0.000000
    7        9.802019   0.000000
    8        9.897973   0.000000
 
  0.3888889E+00  0.3888889E+00  0.0000000E+00  0.1028807E-02
    1       -4.808551   1.000000
    2       -0.677112   1.000000
    3        2.178865   1.000000
    4        2.178865   1.000000
    5        5.351324   0.000000
    6        5.949333   0.000000
    7       11.209558   0.000000
    8       11.209561   0.000000
 
  0.4444444E+00  0.3888889E+00  0.0000000E+00  0.4115226E-02
    1       -4.672592   1.000000
    2       -0.893782   1.000000
    3        2.019384   1.000000
    4        2.128829   1.000000
    5        5.420959   0.000000
    6        5.887554   0.000000
    7       11.320322   0.000000
    8       11.434092   0.000000
 
  0.5000000E+00  0.3888889E+00  0.0000000E+00  0.4115226E-02
    1       -4.561663   1.000000
    2       -1.041271   1.000000
    3        1.734587   1.000000
    4        2.129490   1.000000
    5        5.525458   0.000000
    6        6.169773   0.000000
    7       11.207624   0.000000
    8       11.396516   0.000000
 
 -0.4444444E+00  0.3888889E+00  0.0000000E+00  0.4115226E-02
    1       -4.498294   1.000000
    2       -1.097710   1.000000
    3        1.423236   1.000000
    4        2.180781   1.000000
    5        5.593875   0.000000
    6        6.769763   0.000000
    7       11.042328   0.000000
    8       11.174466   0.000000
 
 -0.3888889E+00  0.3888889E+00  0.0000000E+00  0.2057613E-02
    1       -4.496044   1.000000
    2       -1.067655   1.000000
    3        1.174040   1.000000
    4        2.280423   1.000000
    5        5.696354   0.000000
    6        7.539242   0.000000
    7       10.755889   0.000000
    8       10.772319   0.000000
 
  0.4444444E+00  0.4444444E+00  0.0000000E+00  0.1028807E-02
    1       -4.571191   1.000000
    2       -1.062628   1.000000
    3        2.065868   1.000000
    4        2.065868   1.000000
    5        5.336863   0.000000
    6        5.650756   0.000000
    7       11.900911   0.000000
    8       11.900911   0.000000
 
  0.5000000E+00  0.4444444E+00  0.0000000E+00  0.4115226E-02
    1       -4.499985   1.000000
    2       -1.160625   1.000000
    3        1.937280   1.000000
    4        2.053572   1.000000
    5        5.427668   0.000000
    6        5.672693   0.000000
    7       11.961803   0.000000
    8       12.002717   0.000000
 
 -0.4444444E+00  0.4444444E+00  0.0000000E+00  0.2057613E-02
    1       -4.474391   1.000000
    2       -1.168207   1.000000
    3        1.684259   1.000000
    4        2.092437   1.000000
    5        5.498567   0.000000
    6        6.095588   0.000000
    7       11.695267   0.000000
    8       11.736008   0.000000
 
  0.5000000E+00  0.5000000E+00  0.0000000E+00  0.5144033E-03
    1       -4.477294   1.000000
    2       -1.206060   1.000000
    3        2.027907   1.000000
    4        2.027907   1.000000
    5        5.384295   0.000000
    6        5.497059   0.000000
    7       12.251349   0.000000
    8       12.251349   0.000000
 