       N       E                     dE             d eps       ncg     rms          rms(c)
DAV:   1     0.134113590108E+02    0.13411E+02   -0.27890E+03  3120   0.726E+02
DAV:   2    -0.776825469440E+01   -0.21180E+02   -0.20815E+02  4240   0.822E+01
DAV:   3    -0.825301041996E+01   -0.48476E+00   -0.48476E+00  4336   0.142E+01
DAV:   4    -0.825581143050E+01   -0.28010E-02   -0.28010E-02  4608   0.133E+00
DAV:   5    -0.825582292318E+01   -0.11493E-04   -0.11493E-04  4320   0.743E-02    0.201E+00
RMM:   6    -0.819970266603E+01    0.56120E-01   -0.52650E-02  3124   0.128E+00    0.121E+00
RMM:   7    -0.818407292577E+01    0.15630E-01   -0.57777E-02  3189   0.146E+00    0.234E-01
RMM:   8    -0.818471135099E+01   -0.63843E-03   -0.38743E-03  3229   0.444E-01    0.486E-02
RMM:   9    -0.818511984828E+01   -0.40850E-03   -0.63736E-04  3295   0.175E-01    0.147E-02
RMM:  10    -0.818513020840E+01   -0.10360E-04   -0.53680E-05  3627   0.544E-02    0.431E-03
RMM:  11    -0.818513355914E+01   -0.33507E-05   -0.10025E-05  3517   0.245E-02    0.179E-03
RMM:  12    -0.818513396228E+01   -0.40314E-06   -0.54269E-07  2635   0.684E-03
   1 F= -.81851340E+01 E0= -.81851340E+01  d E =0.000000E+00
