   2   2   0   0
  0.1341787E+02  0.3360544E-09  0.3360544E-09  0.3360544E-09  0.0000000E+00
  1.000000000000000E-004
  CAR 
 unknown system                          
     19.15443403    -10.53091633  301      6.39591782      1.00000000
    -10.531  0.0000E+00  0.0000E+00
    -10.432  0.0000E+00  0.0000E+00
    -10.333  0.0000E+00  0.0000E+00
    -10.234  0.0000E+00  0.0000E+00
    -10.135  0.0000E+00  0.0000E+00
    -10.036  0.0000E+00  0.0000E+00
     -9.937  0.0000E+00  0.0000E+00
     -9.838  0.0000E+00  0.0000E+00
     -9.739  0.0000E+00  0.0000E+00
     -9.640  0.0000E+00  0.0000E+00
     -9.541  0.0000E+00  0.0000E+00
     -9.442  0.0000E+00  0.0000E+00
     -9.344  0.0000E+00  0.0000E+00
     -9.245  0.0000E+00  0.0000E+00
     -9.146  0.4118E-01  0.6850E-03
     -9.047  0.8285E-01  0.7017E-02
     -8.948  0.1138E+00  0.1694E-01
     -8.849  0.1390E+00  0.2937E-01
     -8.750  0.1573E+00  0.4404E-01
     -8.651  0.1783E+00  0.6062E-01
     -8.552  0.1932E+00  0.7897E-01
     -8.453  0.2105E+00  0.9893E-01
     -8.354  0.2253E+00  0.1205E+00
     -8.255  0.2400E+00  0.1435E+00
     -8.156  0.2557E+00  0.1681E+00
     -8.057  0.2688E+00  0.1940E+00
     -7.958  0.2829E+00  0.2213E+00
     -7.859  0.2978E+00  0.2500E+00
     -7.760  0.3109E+00  0.2801E+00
     -7.661  0.3249E+00  0.3116E+00
     -7.562  0.3398E+00  0.3445E+00
     -7.463  0.3541E+00  0.3788E+00
     -7.364  0.3689E+00  0.4146E+00
     -7.266  0.3847E+00  0.4519E+00
     -7.167  0.4013E+00  0.4907E+00
     -7.068  0.4184E+00  0.5313E+00
     -6.969  0.4370E+00  0.5736E+00
     -6.870  0.4572E+00  0.6178E+00
     -6.771  0.4794E+00  0.6641E+00
     -6.672  0.5052E+00  0.7128E+00
     -6.573  0.5351E+00  0.7642E+00
     -6.474  0.5716E+00  0.8189E+00
     -6.375  0.6212E+00  0.8777E+00
     -6.276  0.7201E+00  0.9431E+00
     -6.177  0.7747E+00  0.1020E+01
     -6.078  0.7498E+00  0.1095E+01
     -5.979  0.7484E+00  0.1169E+01
     -5.880  0.7276E+00  0.1242E+01
     -5.781  0.7066E+00  0.1313E+01
     -5.682  0.7012E+00  0.1383E+01
     -5.583  0.6872E+00  0.1452E+01
     -5.484  0.6775E+00  0.1519E+01
     -5.385  0.6675E+00  0.1586E+01
     -5.287  0.6687E+00  0.1652E+01
     -5.188  0.6688E+00  0.1718E+01
     -5.089  0.6866E+00  0.1785E+01
     -4.990  0.7432E+00  0.1855E+01
     -4.891  0.9236E+00  0.1938E+01
     -4.792  0.2370E+00  0.1992E+01
     -4.693  0.0000E+00  0.2000E+01
     -4.594  0.0000E+00  0.2000E+01
     -4.495  0.0000E+00  0.2000E+01
     -4.396  0.0000E+00  0.2000E+01
     -4.297  0.0000E+00  0.2000E+01
     -4.198  0.0000E+00  0.2000E+01
     -4.099  0.0000E+00  0.2000E+01
     -4.000  0.0000E+00  0.2000E+01
     -3.901  0.0000E+00  0.2000E+01
     -3.802  0.0000E+00  0.2000E+01
     -3.703  0.0000E+00  0.2000E+01
     -3.604  0.0000E+00  0.2000E+01
     -3.505  0.0000E+00  0.2000E+01
     -3.406  0.0000E+00  0.2000E+01
     -3.307  0.0000E+00  0.2000E+01
     -3.209  0.0000E+00  0.2000E+01
     -3.110  0.0000E+00  0.2000E+01
     -3.011  0.0000E+00  0.2000E+01
     -2.912  0.0000E+00  0.2000E+01
     -2.813  0.0000E+00  0.2000E+01
     -2.714  0.0000E+00  0.2000E+01
     -2.615  0.0000E+00  0.2000E+01
     -2.516  0.8842E-01  0.2001E+01
     -2.417  0.1710E+00  0.2012E+01
     -2.318  0.2350E+00  0.2031E+01
     -2.219  0.3433E+00  0.2059E+01
     -2.120  0.5078E+00  0.2103E+01
     -2.021  0.6960E+00  0.2164E+01
     -1.922  0.9354E+00  0.2244E+01
     -1.823  0.1443E+01  0.2358E+01
     -1.724  0.2003E+01  0.2548E+01
     -1.625  0.1128E+01  0.2690E+01
     -1.526  0.8551E+00  0.2787E+01
     -1.427  0.7455E+00  0.2866E+01
     -1.328  0.6438E+00  0.2935E+01
     -1.230  0.5794E+00  0.2995E+01
     -1.131  0.5345E+00  0.3050E+01
     -1.032  0.4881E+00  0.3101E+01
     -0.933  0.4479E+00  0.3147E+01
     -0.834  0.4237E+00  0.3190E+01
     -0.735  0.3988E+00  0.3230E+01
     -0.636  0.3684E+00  0.3268E+01
     -0.537  0.3477E+00  0.3304E+01
     -0.438  0.3333E+00  0.3337E+01
     -0.339  0.3176E+00  0.3370E+01
     -0.240  0.2998E+00  0.3400E+01
     -0.141  0.2795E+00  0.3429E+01
     -0.042  0.2695E+00  0.3456E+01
      0.057  0.2595E+00  0.3482E+01
      0.156  0.2497E+00  0.3507E+01
      0.255  0.4161E+00  0.3540E+01
      0.354  0.5445E+00  0.3587E+01
      0.453  0.6417E+00  0.3646E+01
      0.552  0.9141E+00  0.3718E+01
      0.651  0.8827E+00  0.3807E+01
      0.750  0.8437E+00  0.3894E+01
      0.848  0.7838E+00  0.3974E+01
      0.947  0.7689E+00  0.4050E+01
      1.046  0.7634E+00  0.4127E+01
      1.145  0.7351E+00  0.4200E+01
      1.244  0.7585E+00  0.4275E+01
      1.343  0.8015E+00  0.4351E+01
      1.442  0.7890E+00  0.4430E+01
      1.541  0.8106E+00  0.4509E+01
      1.640  0.8222E+00  0.4590E+01
      1.739  0.8516E+00  0.4673E+01
      1.838  0.8771E+00  0.4760E+01
      1.937  0.9276E+00  0.4849E+01
      2.036  0.9549E+00  0.4942E+01
      2.135  0.1072E+01  0.5042E+01
      2.234  0.1164E+01  0.5153E+01
      2.333  0.1152E+01  0.5268E+01
      2.432  0.1145E+01  0.5382E+01
      2.531  0.1129E+01  0.5494E+01
      2.630  0.1115E+01  0.5605E+01
      2.729  0.1093E+01  0.5714E+01
      2.827  0.1077E+01  0.5822E+01
      2.926  0.1062E+01  0.5927E+01
      3.025  0.1051E+01  0.6032E+01
      3.124  0.1037E+01  0.6135E+01
      3.223  0.1026E+01  0.6238E+01
      3.322  0.1005E+01  0.6338E+01
      3.421  0.9925E+00  0.6437E+01
      3.520  0.9827E+00  0.6534E+01
      3.619  0.9686E+00  0.6631E+01
      3.718  0.9541E+00  0.6726E+01
      3.817  0.9435E+00  0.6820E+01
      3.916  0.9329E+00  0.6913E+01
      4.015  0.9253E+00  0.7005E+01
      4.114  0.9119E+00  0.7096E+01
      4.213  0.8934E+00  0.7185E+01
      4.312  0.8866E+00  0.7273E+01
      4.411  0.8679E+00  0.7360E+01
      4.510  0.7658E+00  0.7444E+01
      4.609  0.6386E+00  0.7512E+01
      4.708  0.5705E+00  0.7571E+01
      4.807  0.5090E+00  0.7625E+01
      4.905  0.4616E+00  0.7673E+01
      5.004  0.4143E+00  0.7716E+01
      5.103  0.3823E+00  0.7755E+01
      5.202  0.3453E+00  0.7791E+01
      5.301  0.3134E+00  0.7824E+01
      5.400  0.2836E+00  0.7853E+01
      5.499  0.2555E+00  0.7880E+01
      5.598  0.2286E+00  0.7904E+01
      5.697  0.2031E+00  0.7926E+01
      5.796  0.1754E+00  0.7944E+01
      5.895  0.1495E+00  0.7960E+01
      5.994  0.1312E+00  0.7974E+01
      6.093  0.1016E+00  0.7986E+01
      6.192  0.6956E-01  0.7995E+01
      6.291  0.2011E-01  0.8000E+01
      6.390  0.0000E+00  0.8000E+01
      6.489  0.0000E+00  0.8000E+01
      6.588  0.0000E+00  0.8000E+01
      6.687  0.0000E+00  0.8000E+01
      6.786  0.0000E+00  0.8000E+01
      6.884  0.0000E+00  0.8000E+01
      6.983  0.0000E+00  0.8000E+01
      7.082  0.0000E+00  0.8000E+01
      7.181  0.0000E+00  0.8000E+01
      7.280  0.0000E+00  0.8000E+01
      7.379  0.0000E+00  0.8000E+01
      7.478  0.0000E+00  0.8000E+01
      7.577  0.3753E-01  0.8001E+01
      7.676  0.1117E+00  0.8009E+01
      7.775  0.1634E+00  0.8022E+01
      7.874  0.2141E+00  0.8041E+01
      7.973  0.2737E+00  0.8065E+01
      8.072  0.3129E+00  0.8095E+01
      8.171  0.3477E+00  0.8127E+01
      8.270  0.3832E+00  0.8163E+01
      8.369  0.4208E+00  0.8203E+01
      8.468  0.4605E+00  0.8247E+01
      8.567  0.4982E+00  0.8294E+01
      8.666  0.5294E+00  0.8345E+01
      8.765  0.5617E+00  0.8399E+01
      8.864  0.5952E+00  0.8456E+01
      8.962  0.6316E+00  0.8517E+01
      9.061  0.6721E+00  0.8581E+01
      9.160  0.7182E+00  0.8650E+01
      9.259  0.8377E+00  0.8726E+01
      9.358  0.9553E+00  0.8816E+01
      9.457  0.1078E+01  0.8916E+01
      9.556  0.1240E+01  0.9030E+01
      9.655  0.1641E+01  0.9171E+01
      9.754  0.1749E+01  0.9345E+01
      9.853  0.1377E+01  0.9495E+01
      9.952  0.1308E+01  0.9627E+01
     10.051  0.1294E+01  0.9755E+01
     10.150  0.1131E+01  0.9875E+01
     10.249  0.1155E+01  0.9986E+01
     10.348  0.1028E+01  0.1010E+02
     10.447  0.6900E+00  0.1018E+02
     10.546  0.6524E+00  0.1025E+02
     10.645  0.6099E+00  0.1031E+02
     10.744  0.6523E+00  0.1038E+02
     10.843  0.6943E+00  0.1044E+02
     10.941  0.8144E+00  0.1052E+02
     11.040  0.1849E+01  0.1065E+02
     11.139  0.1441E+01  0.1081E+02
     11.238  0.1450E+01  0.1095E+02
     11.337  0.1363E+01  0.1109E+02
     11.436  0.1382E+01  0.1122E+02
     11.535  0.1522E+01  0.1137E+02
     11.634  0.1562E+01  0.1152E+02
     11.733  0.1273E+01  0.1167E+02
     11.832  0.1117E+01  0.1178E+02
     11.931  0.9957E+00  0.1189E+02
     12.030  0.9391E+00  0.1198E+02
     12.129  0.8880E+00  0.1207E+02
     12.228  0.9395E+00  0.1216E+02
     12.327  0.1020E+01  0.1226E+02
     12.426  0.1033E+01  0.1236E+02
     12.525  0.1132E+01  0.1247E+02
     12.624  0.1110E+01  0.1258E+02
     12.723  0.1043E+01  0.1269E+02
     12.822  0.1071E+01  0.1279E+02
     12.921  0.1126E+01  0.1290E+02
     13.019  0.1075E+01  0.1301E+02
     13.118  0.1090E+01  0.1311E+02
     13.217  0.1037E+01  0.1322E+02
     13.316  0.1084E+01  0.1333E+02
     13.415  0.1084E+01  0.1343E+02
     13.514  0.1066E+01  0.1354E+02
     13.613  0.9844E+00  0.1364E+02
     13.712  0.9779E+00  0.1374E+02
     13.811  0.9882E+00  0.1383E+02
     13.910  0.9437E+00  0.1393E+02
     14.009  0.8589E+00  0.1402E+02
     14.108  0.6829E+00  0.1410E+02
     14.207  0.6690E+00  0.1416E+02
     14.306  0.6732E+00  0.1423E+02
     14.405  0.6929E+00  0.1430E+02
     14.504  0.7017E+00  0.1436E+02
     14.603  0.7038E+00  0.1443E+02
     14.702  0.7227E+00  0.1450E+02
     14.801  0.7506E+00  0.1458E+02
     14.900  0.7801E+00  0.1465E+02
     14.998  0.8076E+00  0.1473E+02
     15.097  0.8593E+00  0.1481E+02
     15.196  0.1015E+01  0.1491E+02
     15.295  0.1209E+01  0.1501E+02
     15.394  0.1326E+01  0.1514E+02
     15.493  0.1271E+01  0.1527E+02
     15.592  0.1040E+01  0.1539E+02
     15.691  0.5671E+00  0.1547E+02
     15.790  0.4971E+00  0.1552E+02
     15.889  0.4432E+00  0.1556E+02
     15.988  0.4216E+00  0.1561E+02
     16.087  0.3936E+00  0.1565E+02
     16.186  0.3590E+00  0.1569E+02
     16.285  0.3447E+00  0.1572E+02
     16.384  0.3175E+00  0.1575E+02
     16.483  0.2904E+00  0.1578E+02
     16.582  0.2692E+00  0.1581E+02
     16.681  0.2474E+00  0.1584E+02
     16.780  0.2311E+00  0.1586E+02
     16.879  0.2160E+00  0.1588E+02
     16.978  0.2029E+00  0.1590E+02
     17.076  0.1809E+00  0.1592E+02
     17.175  0.1535E+00  0.1594E+02
     17.274  0.1351E+00  0.1595E+02
     17.373  0.1205E+00  0.1597E+02
     17.472  0.1085E+00  0.1598E+02
     17.571  0.9178E-01  0.1599E+02
     17.670  0.5684E-01  0.1599E+02
     17.769  0.3719E-01  0.1600E+02
     17.868  0.0000E+00  0.1600E+02
     17.967  0.0000E+00  0.1600E+02
     18.066  0.0000E+00  0.1600E+02
     18.165  0.0000E+00  0.1600E+02
     18.264  0.0000E+00  0.1600E+02
     18.363  0.0000E+00  0.1600E+02
     18.462  0.0000E+00  0.1600E+02
     18.561  0.0000E+00  0.1600E+02
     18.660  0.0000E+00  0.1600E+02
     18.759  0.0000E+00  0.1600E+02
     18.858  0.0000E+00  0.1600E+02
     18.957  0.0000E+00  0.1600E+02
     19.055  0.0000E+00  0.1600E+02
     19.154  0.0000E+00  0.1600E+02
