    2    2    1    1
  0.1341787E+02  0.3360544E-09  0.3360544E-09  0.3360544E-09  0.0000000E+00
  1.000000000000000E-004
  CAR 
 unknown system                          
      8    364      8
 
  0.0000000E+00  0.0000000E+00  0.0000000E+00  0.8218953E-04
    1       -9.181582   1.000000
    2        6.350475   1.000000
    3        6.350475   1.000000
    4        6.350475   1.000000
    5        9.638993   0.000000
    6        9.638993   0.000000
    7        9.638993   0.000000
    8       11.259259   0.000000
 
  0.4347826E-01  0.0000000E+00  0.0000000E+00  0.6575162E-03
    1       -9.149999   1.000000
    2        6.020304   1.000000
    3        6.284611   1.000000
    4        6.284611   1.000000
    5        9.725109   0.000000
    6        9.725109   0.000000
    7        9.729190   0.000000
    8       11.423316   0.000000
 
  0.8695652E-01  0.0000000E+00  0.0000000E+00  0.6575162E-03
    1       -9.055438   1.000000
    2        5.230067   1.000000
    3        6.109642   1.000000
    4        6.109642   1.000000
    5        9.821560   0.000000
    6        9.955363   0.000000
    7        9.955363   0.000000
    8       11.900152   0.000000
 
  0.1304348E+00  0.0000000E+00  0.0000000E+00  0.6575162E-03
    1       -8.898745   1.000000
    2        4.243348   1.000000
    3        5.872129   1.000000
    4        5.872129   1.000000
    5        9.800843   0.000000
    6       10.266832   0.000000
    7       10.266832   0.000000
    8       12.561310   0.000000
 
  0.1739130E+00  0.0000000E+00  0.0000000E+00  0.6575162E-03
    1       -8.681416   1.000000
    2        3.191787   1.000000
    3        5.612930   1.000000
    4        5.612930   1.000000
    5        9.710575   0.000000
    6       10.592025   0.000000
    7       10.592025   0.000000
    8       13.260786   0.000000
 
  0.2173913E+00  0.0000000E+00  0.0000000E+00  0.6575162E-03
    1       -8.406069   1.000000
    2        2.136639   1.000000
    3        5.359005   1.000000
    4        5.359005   1.000000
    5        9.594844   0.000000
    6       10.872710   0.000000
    7       10.872710   0.000000
    8       13.920650   0.000000
 
  0.2608696E+00  0.0000000E+00  0.0000000E+00  0.6575162E-03
    1       -8.077082   1.000000
    2        1.111654   1.000000
    3        5.126497   1.000000
    4        5.126497   1.000000
    5        9.477750   0.000000
    6       11.069661   0.000000
    7       11.069661   0.000000
    8       14.490417   0.000000
 
  0.3043478E+00  0.0000000E+00  0.0000000E+00  0.6575162E-03
    1       -7.702012   1.000000
    2        0.140968   1.000000
    3        4.924763   1.000000
    4        4.924763   1.000000
    5        9.371702   0.000000
    6       11.173108   0.000000
    7       11.173108   0.000000
    8       14.913843   0.000000
 
  0.3478261E+00  0.0000000E+00  0.0000000E+00  0.6575162E-03
    1       -7.294577   1.000000
    2       -0.751692   1.000000
    3        4.759354   1.000000
    4        4.759354   1.000000
    5        9.283227   0.000000
    6       11.201741   0.000000
    7       11.201741   0.000000
    8       15.152453   0.000000
 
  0.3913043E+00  0.0000000E+00  0.0000000E+00  0.6575162E-03
    1       -6.880929   1.000000
    2       -1.533724   1.000000
    3        4.633420   1.000000
    4        4.633420   1.000000
    5        9.215461   0.000000
    6       11.187624   0.000000
    7       11.187624   0.000000
    8       15.238260   0.000000
 
  0.4347826E+00  0.0000000E+00  0.0000000E+00  0.6575162E-03
    1       -6.512416   1.000000
    2       -2.149820   1.000000
    3        4.548754   1.000000
    4        4.548754   1.000000
    5        9.169870   0.000000
    6       11.160902   0.000000
    7       11.160902   0.000000
    8       15.247332   0.000000
 
  0.4782609E+00  0.0000000E+00  0.0000000E+00  0.6575162E-03
    1       -6.279319   1.000000
    2       -2.507252   1.000000
    3        4.506211   1.000000
    4        4.506211   1.000000
    5        9.147004   0.000000
    6       11.142387   0.000000
    7       11.142387   0.000000
    8       15.238483   0.000000
 
  0.4347826E-01  0.4347826E-01  0.0000000E+00  0.4931372E-03
    1       -9.139457   1.000000
    2        6.140276   1.000000
    3        6.147406   1.000000
    4        6.147406   1.000000
    5        9.515544   0.000000
    6        9.887859   0.000000
    7        9.887859   0.000000
    8       11.453935   0.000000
 
  0.8695652E-01  0.4347826E-01  0.0000000E+00  0.1972549E-02
    1       -9.065855   1.000000
    2        5.487751   1.000000
    3        5.923485   1.000000
    4        6.117535   1.000000
    5        9.503831   0.000000
    6       10.099658   0.000000
    7       10.174532   0.000000
    8       11.786202   0.000000
 
  0.1304348E+00  0.4347826E-01  0.0000000E+00  0.1972549E-02
    1       -8.929839   1.000000
    2        4.565214   1.000000
    3        5.659240   1.000000
    4        5.968041   1.000000
    5        9.632206   0.000000
    6       10.205344   0.000000
    7       10.523927   0.000000
    8       12.360866   0.000000
 
  0.1739130E+00  0.4347826E-01  0.0000000E+00  0.1972549E-02
    1       -8.732616   1.000000
    2        3.539519   1.000000
    3        5.389560   1.000000
    4        5.743984   1.000000
    5        9.744334   0.000000
    6       10.317303   0.000000
    7       10.875621   0.000000
    8       13.006719   0.000000
 
  0.2173913E+00  0.4347826E-01  0.0000000E+00  0.1972549E-02
    1       -8.476424   1.000000
    2        2.489824   1.000000
    3        5.136483   1.000000
    4        5.489296   1.000000
    5        9.731311   0.000000
    6       10.526706   0.000000
    7       11.175448   0.000000
    8       13.613848   0.000000
 
  0.2608696E+00  0.4347826E-01  0.0000000E+00  0.1972549E-02
    1       -8.164915   1.000000
    2        1.457973   1.000000
    3        4.913212   1.000000
    4        5.233131   1.000000
    5        9.649670   0.000000
    6       10.746159   0.000000
    7       11.383054   0.000000
    8       14.144944   0.000000
 
  0.3043478E+00  0.4347826E-01  0.0000000E+00  0.1972549E-02
    1       -7.804391   1.000000
    2        0.471089   1.000000
    3        4.727478   1.000000
    4        4.992913   1.000000
    5        9.553901   0.000000
    6       10.903065   0.000000
    7       11.484089   0.000000
    8       14.594527   0.000000
 
  0.3478261E+00  0.4347826E-01  0.0000000E+00  0.1972549E-02
    1       -7.406041   1.000000
    2       -0.447299   1.000000
    3        4.583673   1.000000
    4        4.779006   1.000000
    5        9.465577   0.000000
    6       10.986864   0.000000
    7       11.494008   0.000000
    8       14.946551   0.000000
 
  0.3913043E+00  0.4347826E-01  0.0000000E+00  0.1972549E-02
    1       -6.990839   1.000000
    2       -1.268387   1.000000
    3        4.484131   1.000000
    4        4.597723   1.000000
    5        9.393638   0.000000
    6       11.021176   0.000000
    7       11.445476   0.000000
    8       15.171916   0.000000
 
  0.4347826E+00  0.4347826E-01  0.0000000E+00  0.1972549E-02
    1       -6.599882   1.000000
    2       -1.946248   1.000000
    3        4.429718   1.000000
    4        4.453262   1.000000
    5        9.341988   0.000000
    6       11.037270   0.000000
    7       11.371862   0.000000
    8       15.279946   0.000000
 
  0.4782609E+00  0.4347826E-01  0.0000000E+00  0.1972549E-02
    1       -6.309940   1.000000
    2       -2.401048   1.000000
    3        4.348465   1.000000
    4        4.420413   1.000000
    5        9.312322   0.000000
    6       11.059489   0.000000
    7       11.298149   0.000000
    8       15.319250   0.000000
 
 -0.4782609E+00  0.4347826E-01  0.0000000E+00  0.1972549E-02
    1       -6.225592   1.000000
    2       -2.526682   1.000000
    3        4.285496   1.000000
    4        4.455483   1.000000
    5        9.305281   0.000000
    6       11.101522   0.000000
    7       11.238694   0.000000
    8       15.330559   0.000000
 
 -0.4347826E+00  0.4347826E-01  0.0000000E+00  0.1972549E-02
    1       -6.389017   1.000000
    2       -2.280536   1.000000
    3        4.265983   1.000000
    4        4.533657   1.000000
    5        9.320958   0.000000
    6       11.166498   0.000000
    7       11.197473   0.000000
    8       15.325588   0.000000
 
 -0.3913043E+00  0.4347826E-01  0.0000000E+00  0.1972549E-02
    1       -6.723836   1.000000
    2       -1.739816   1.000000
    3        4.291033   1.000000
    4        4.653100   1.000000
    5        9.359138   0.000000
    6       11.168207   0.000000
    7       11.247200   0.000000
    8       15.285182   0.000000
 
 -0.3478261E+00  0.4347826E-01  0.0000000E+00  0.1972549E-02
    1       -7.129335   1.000000
    2       -1.007233   1.000000
    3        4.361251   1.000000
    4        4.811442   1.000000
    5        9.419184   0.000000
    6       11.134232   0.000000
    7       11.325426   0.000000
    8       15.162354   0.000000
 
 -0.3043478E+00  0.4347826E-01  0.0000000E+00  0.1972549E-02
    1       -7.542174   1.000000
    2       -0.149735   1.000000
    3        4.476587   1.000000
    4        5.005265   1.000000
    5        9.499575   0.000000
    6       11.069363   0.000000
    7       11.371113   0.000000
    8       14.907489   0.000000
 
 -0.2608696E+00  0.4347826E-01  0.0000000E+00  0.1972549E-02
    1       -7.929610   1.000000
    2        0.794115   1.000000
    3        4.635938   1.000000
    4        5.229578   1.000000
    5        9.597134   0.000000
    6       10.944051   0.000000
    7       11.345502   0.000000
    8       14.515231   0.000000
 
 -0.2173913E+00  0.4347826E-01  0.0000000E+00  0.1972549E-02
    1       -8.274690   1.000000
    2        1.798179   1.000000
    3        4.836892   1.000000
    4        5.476612   1.000000
    5        9.705284   0.000000
    6       10.739811   0.000000
    7       11.214970   0.000000
    8       14.020321   0.000000
 
 -0.1739130E+00  0.4347826E-01  0.0000000E+00  0.1972549E-02
    1       -8.568285   1.000000
    2        2.838134   1.000000
    3        5.074868   1.000000
    4        5.733730   1.000000
    5        9.811034   0.000000
    6       10.465603   0.000000
    7       10.973861   0.000000
    8       13.450482   0.000000
 
 -0.1304348E+00  0.4347826E-01  0.0000000E+00  0.1972549E-02
    1       -8.805111   1.000000
    2        3.881919   1.000000
    3        5.342358   1.000000
    4        5.980073   1.000000
    5        9.888034   0.000000
    6       10.162167   0.000000
    7       10.657417   0.000000
    8       12.824316   0.000000
 
 -0.8695652E-01  0.4347826E-01  0.0000000E+00  0.1972549E-02
    1       -8.982105   1.000000
    2        4.872026   1.000000
    3        5.629519   1.000000
    4        6.182488   1.000000
    5        9.886626   0.000000
    6        9.892778   0.000000
    7       10.331346   0.000000
    8       12.192118   0.000000
 
 -0.4347826E-01  0.4347826E-01  0.0000000E+00  0.9862743E-03
    1       -9.097395   1.000000
    2        5.664478   1.000000
    3        5.948921   1.000000
    4        6.296445   1.000000
    5        9.728848   0.000000
    6        9.780880   0.000000
    7       10.033695   0.000000
    8       11.678011   0.000000
 
  0.8695652E-01  0.8695652E-01  0.0000000E+00  0.4931372E-03
    1       -9.013284   1.000000
    2        5.583631   1.000000
    3        5.667915   1.000000
    4        5.667915   1.000000
    5        9.231699   0.000000
    6       10.503669   0.000000
    7       10.503669   0.000000
    8       11.864726   0.000000
 
  0.1304348E+00  0.8695652E-01  0.0000000E+00  0.1972549E-02
    1       -8.898131   1.000000
    2        4.811340   1.000000
    3        5.385648   1.000000
    4        5.623074   1.000000
    5        9.182127   0.000000
    6       10.744624   0.000000
    7       10.886860   0.000000
    8       12.215205   0.000000
 
  0.1739130E+00  0.8695652E-01  0.0000000E+00  0.1972549E-02
    1       -8.721424   1.000000
    2        3.851666   1.000000
    3        5.107189   1.000000
    4        5.481191   1.000000
    5        9.310514   0.000000
    6       10.788319   0.000000
    7       11.269816   0.000000
    8       12.713697   0.000000
 
  0.2173913E+00  0.8695652E-01  0.0000000E+00  0.1972549E-02
    1       -8.485040   1.000000
    2        2.834958   1.000000
    3        4.851898   1.000000
    4        5.256791   1.000000
    5        9.505418   0.000000
    6       10.785119   0.000000
    7       11.600941   0.000000
    8       13.159950   0.000000
 
  0.2608696E+00  0.8695652E-01  0.0000000E+00  0.1972549E-02
    1       -8.192071   1.000000
    2        1.815487   1.000000
    3        4.631606   1.000000
    4        4.995939   1.000000
    5        9.653734   0.000000
    6       10.819261   0.000000
    7       11.837071   0.000000
    8       13.519246   0.000000
 
  0.3043478E+00  0.8695652E-01  0.0000000E+00  0.1972549E-02
    1       -7.847816   1.000000
    2        0.826724   1.000000
    3        4.453482   1.000000
    4        4.729684   1.000000
    5        9.707046   0.000000
    6       10.890800   0.000000
    7       11.956908   0.000000
    8       13.871173   0.000000
 
  0.3478261E+00  0.8695652E-01  0.0000000E+00  0.1972549E-02
    1       -7.461477   1.000000
    2       -0.105544   1.000000
    3        4.321654   1.000000
    4        4.476662   1.000000
    5        9.694292   0.000000
    6       10.951712   0.000000
    7       11.969367   0.000000
    8       14.279444   0.000000
 
  0.3913043E+00  0.8695652E-01  0.0000000E+00  0.1972549E-02
    1       -7.050028   1.000000
    2       -0.954106   1.000000
    3        4.238251   1.000000
    4        4.248265   1.000000
    5        9.658618   0.000000
    6       10.982088   0.000000
    7       11.905395   0.000000
    8       14.721403   0.000000
 
  0.4347826E+00  0.8695652E-01  0.0000000E+00  0.1972549E-02
    1       -6.646260   1.000000
    2       -1.679711   1.000000
    3        4.051980   1.000000
    4        4.204021   1.000000
    5        9.626033   0.000000
    6       10.997413   0.000000
    7       11.800747   0.000000
    8       15.112770   0.000000
 
  0.4782609E+00  0.8695652E-01  0.0000000E+00  0.1972549E-02
    1       -6.313355   1.000000
    2       -2.215149   1.000000
    3        3.893023   1.000000
    4        4.218609   1.000000
    5        9.608826   0.000000
    6       11.020360   0.000000
    7       11.684210   0.000000
    8       15.379816   0.000000
 
 -0.4782609E+00  0.8695652E-01  0.0000000E+00  0.1972549E-02
    1       -6.151385   1.000000
    2       -2.458137   1.000000
    3        3.775384   1.000000
    4        4.280742   1.000000
    5        9.611824   0.000000
    6       11.067038   0.000000
    7       11.573929   0.000000
    8       15.511750   0.000000
 
 -0.4347826E+00  0.8695652E-01  0.0000000E+00  0.1972549E-02
    1       -6.235764   1.000000
    2       -2.332347   1.000000
    3        3.702176   1.000000
    4        4.388375   1.000000
    5        9.636051   0.000000
    6       11.144630   0.000000
    7       11.477440   0.000000
    8       15.528051   0.000000
 
 -0.3913043E+00  0.8695652E-01  0.0000000E+00  0.1972549E-02
    1       -6.524470   1.000000
    2       -1.880369   1.000000
    3        3.675851   1.000000
    4        4.538620   1.000000
    5        9.680613   0.000000
    6       11.251100   0.000000
    7       11.391961   0.000000
    8       15.426400   0.000000
 
 -0.3478261E+00  0.8695652E-01  0.0000000E+00  0.1972549E-02
    1       -6.913751   1.000000
    2       -1.207735   1.000000
    3        3.698316   1.000000
    4        4.727583   1.000000
    5        9.743773   0.000000
    6       11.304421   0.000000
    7       11.373449   0.000000
    8       15.185259   0.000000
 
 -0.3043478E+00  0.8695652E-01  0.0000000E+00  0.1972549E-02
    1       -7.327364   1.000000
    2       -0.394417   1.000000
    3        3.770924   1.000000
    4        4.950002   1.000000
    5        9.822939   0.000000
    6       11.192449   0.000000
    7       11.484046   0.000000
    8       14.811990   0.000000
 
 -0.2608696E+00  0.8695652E-01  0.0000000E+00  0.1972549E-02
    1       -7.724334   1.000000
    2        0.512532   1.000000
    3        3.894597   1.000000
    4        5.198451   1.000000
    5        9.913827   0.000000
    6       11.030039   0.000000
    7       11.536887   0.000000
    8       14.368770   0.000000
 
 -0.2173913E+00  0.8695652E-01  0.0000000E+00  0.1972549E-02
    1       -8.083728   1.000000
    2        1.481612   1.000000
    3        4.070245   1.000000
    4        5.461930   1.000000
    5       10.008162   0.000000
    6       10.801797   0.000000
    7       11.474567   0.000000
    8       13.930388   0.000000
 
 -0.1739130E+00  0.8695652E-01  0.0000000E+00  0.1972549E-02
    1       -8.394314   1.000000
    2        2.482609   1.000000
    3        4.300380   1.000000
    4        5.723565   1.000000
    5       10.089062   0.000000
    6       10.519941   0.000000
    7       11.266564   0.000000
    8       13.521440   0.000000
 
 -0.1304348E+00  0.8695652E-01  0.0000000E+00  0.1972549E-02
    1       -8.649795   1.000000
    2        3.468058   1.000000
    3        4.597273   1.000000
    4        5.956966   1.000000
    5       10.121444   0.000000
    6       10.229426   0.000000
    7       10.956037   0.000000
    8       13.098671   0.000000
 
 -0.8695652E-01  0.8695652E-01  0.0000000E+00  0.9862743E-03
    1       -8.846462   1.000000
    2        4.321022   1.000000
    3        5.020253   1.000000
    4        6.124095   1.000000
    5        9.997403   0.000000
    6       10.048337   0.000000
    7       10.638635   0.000000
    8       12.631974   0.000000
 
  0.1304348E+00  0.1304348E+00  0.0000000E+00  0.4931372E-03
    1       -8.803873   1.000000
    2        4.814111   1.000000
    3        5.091384   1.000000
    4        5.091384   1.000000
    5        8.887828   0.000000
    6       11.303849   0.000000
    7       11.303849   0.000000
    8       12.171387   0.000000
 
  0.1739130E+00  0.1304348E+00  0.0000000E+00  0.1972549E-02
    1       -8.647907   1.000000
    2        4.059201   1.000000
    3        4.804894   1.000000
    4        4.978760   1.000000
    5        8.830895   0.000000
    6       11.508337   0.000000
    7       11.724457   0.000000
    8       12.393351   0.000000
 
  0.2173913E+00  0.1304348E+00  0.0000000E+00  0.1972549E-02
    1       -8.431785   1.000000
    2        3.122875   1.000000
    3        4.544536   1.000000
    4        4.815127   1.000000
    5        8.967485   0.000000
    6       11.467636   0.000000
    7       12.098644   0.000000
    8       12.684631   0.000000
 
  0.2608696E+00  0.1304348E+00  0.0000000E+00  0.1972549E-02
    1       -8.158168   1.000000
    2        2.147937   1.000000
    3        4.321911   1.000000
    4        4.571283   1.000000
    5        9.187590   0.000000
    6       11.419949   0.000000
    7       12.380417   0.000000
    8       12.869949   0.000000
 
  0.3043478E+00  0.1304348E+00  0.0000000E+00  0.1972549E-02
    1       -7.831541   1.000000
    2        1.180533   1.000000
    3        4.144117   1.000000
    4        4.291471   1.000000
    5        9.381986   0.000000
    6       11.420444   0.000000
    7       12.540027   0.000000
    8       13.050279   0.000000
 
  0.3478261E+00  0.1304348E+00  0.0000000E+00  0.1972549E-02
    1       -7.459580   1.000000
    2        0.252281   1.000000
    3        4.007240   1.000000
    4        4.015507   1.000000
    5        9.497660   0.000000
    6       11.440479   0.000000
    7       12.577163   0.000000
    8       13.359146   0.000000
 
  0.3913043E+00  0.1304348E+00  0.0000000E+00  0.1972549E-02
    1       -7.056163   1.000000
    2       -0.608316   1.000000
    3        3.737976   1.000000
    4        3.938376   1.000000
    5        9.549078   0.000000
    6       11.439280   0.000000
    7       12.518428   0.000000
    8       13.838943   0.000000
 
  0.4347826E+00  0.1304348E+00  0.0000000E+00  0.1972549E-02
    1       -6.647589   1.000000
    2       -1.365631   1.000000
    3        3.495830   1.000000
    4        3.913591   1.000000
    5        9.575318   0.000000
    6       11.417682   0.000000
    7       12.400759   0.000000
    8       14.429205   0.000000
 
  0.4782609E+00  0.1304348E+00  0.0000000E+00  0.1972549E-02
    1       -6.285006   1.000000
    2       -1.962806   1.000000
    3        3.288968   1.000000
    4        3.940908   1.000000
    5        9.606174   0.000000
    6       11.396993   0.000000
    7       12.256631   0.000000
    8       15.018537   0.000000
 
 -0.4782609E+00  0.1304348E+00  0.0000000E+00  0.1972549E-02
    1       -6.057334   1.000000
    2       -2.307485   1.000000
    3        3.123377   1.000000
    4        4.018979   1.000000
    5        9.656926   0.000000
    6       11.395348   0.000000
    7       12.107986   0.000000
    8       15.473088   0.000000
 
 -0.4347826E+00  0.1304348E+00  0.0000000E+00  0.1972549E-02
    1       -6.059163   1.000000
    2       -2.303566   1.000000
    3        3.003667   1.000000
    4        4.145489   1.000000
    5        9.732131   0.000000
    6       11.424103   0.000000
    7       11.965526   0.000000
    8       15.674789   0.000000
 
 -0.3913043E+00  0.1304348E+00  0.0000000E+00  0.1972549E-02
    1       -6.289430   1.000000
    2       -1.952281   1.000000
    3        2.933573   1.000000
    4        4.316997   1.000000
    5        9.829449   0.000000
    6       11.488545   0.000000
    7       11.829146   0.000000
    8       15.580023   0.000000
 
 -0.3478261E+00  0.1304348E+00  0.0000000E+00  0.1972549E-02
    1       -6.652932   1.000000
    2       -1.350823   1.000000
    3        2.916329   1.000000
    4        4.528627   1.000000
    5        9.942391   0.000000
    6       11.586208   0.000000
    7       11.688295   0.000000
    8       15.229384   0.000000
 
 -0.3043478E+00  0.1304348E+00  0.0000000E+00  0.1972549E-02
    1       -7.061405   1.000000
    2       -0.591946   1.000000
    3        2.955195   1.000000
    4        4.773660   1.000000
    5       10.062352   0.000000
    6       11.523241   0.000000
    7       11.700826   0.000000
    8       14.723664   0.000000
 
 -0.2608696E+00  0.1304348E+00  0.0000000E+00  0.1972549E-02
    1       -7.464286   1.000000
    2        0.265286   1.000000
    3        3.054521   1.000000
    4        5.042468   1.000000
    5       10.179154   0.000000
    6       11.311431   0.000000
    7       11.789765   0.000000
    8       14.185877   0.000000
 
 -0.2173913E+00  0.1304348E+00  0.0000000E+00  0.1972549E-02
    1       -7.835550   1.000000
    2        1.177730   1.000000
    3        3.223078   1.000000
    4        5.321021   1.000000
    5       10.278773   0.000000
    6       11.042609   0.000000
    7       11.771213   0.000000
    8       13.741104   0.000000
 
 -0.1739130E+00  0.1304348E+00  0.0000000E+00  0.1972549E-02
    1       -8.161449   1.000000
    2        2.091988   1.000000
    3        3.485826   1.000000
    4        5.588422   1.000000
    5       10.335547   0.000000
    6       10.735633   0.000000
    7       11.571309   0.000000
    8       13.470796   0.000000
 
 -0.1304348E+00  0.1304348E+00  0.0000000E+00  0.9862743E-03
    1       -8.434355   1.000000
    2        2.898265   1.000000
    3        3.918740   1.000000
    4        5.813814   1.000000
    5       10.299363   0.000000
    6       10.441493   0.000000
    7       11.254251   0.000000
    8       13.303935   0.000000
 
  0.1739130E+00  0.1739130E+00  0.0000000E+00  0.4931372E-03
    1       -8.512695   1.000000
    2        3.928800   1.000000
    3        4.510772   1.000000
    4        4.510772   1.000000
    5        8.536308   0.000000
    6       12.049763   0.000000
    7       12.190960   0.000000
    8       12.190960   0.000000
 
  0.2173913E+00  0.1739130E+00  0.0000000E+00  0.1972549E-02
    1       -8.317092   1.000000
    2        3.242158   1.000000
    3        4.243329   1.000000
    4        4.321362   1.000000
    5        8.488993   0.000000
    6       11.786889   0.000000
    7       12.620415   0.000000
    8       12.621636   0.000000
 
  0.2608696E+00  0.1739130E+00  0.0000000E+00  0.1972549E-02
    1       -8.063424   1.000000
    2        2.378742   1.000000
    3        4.014529   1.000000
    4        4.102505   1.000000
    5        8.639826   0.000000
    6       11.607975   0.000000
    7       12.821071   0.000000
    8       12.964323   0.000000
 
  0.3043478E+00  0.1739130E+00  0.0000000E+00  0.1972549E-02
    1       -7.755503   1.000000
    2        1.476424   1.000000
    3        3.816920   1.000000
    4        3.831840   1.000000
    5        8.869706   0.000000
    6       11.585464   0.000000
    7       12.868197   0.000000
    8       13.184493   0.000000
 
  0.3478261E+00  0.1739130E+00  0.0000000E+00  0.1972549E-02
    1       -7.399857   1.000000
    2        0.584022   1.000000
    3        3.503562   1.000000
    4        3.699920   1.000000
    5        9.065107   0.000000
    6       11.743428   0.000000
    7       12.892401   0.000000
    8       13.268962   0.000000
 
  0.3913043E+00  0.1739130E+00  0.0000000E+00  0.1972549E-02
    1       -7.007975   1.000000
    2       -0.263614   1.000000
    3        3.192999   1.000000
    4        3.621425   1.000000
    5        9.183780   0.000000
    6       11.976651   0.000000
    7       13.056080   0.000000
    8       13.236765   0.000000
 
  0.4347826E+00  0.1739130E+00  0.0000000E+00  0.1972549E-02
    1       -6.601225   1.000000
    2       -1.030583   1.000000
    3        2.904367   1.000000
    4        3.597512   1.000000
    5        9.253407   0.000000
    6       12.095621   0.000000
    7       13.124356   0.000000
    8       13.514114   0.000000
 
  0.4782609E+00  0.1739130E+00  0.0000000E+00  0.1972549E-02
    1       -6.220848   1.000000
    2       -1.666487   1.000000
    3        2.649817   1.000000
    4        3.628151   1.000000
    5        9.315821   0.000000
    6       12.105666   0.000000
    7       12.967706   0.000000
    8       14.191709   0.000000
 
 -0.4782609E+00  0.1739130E+00  0.0000000E+00  0.1972549E-02
    1       -5.942364   1.000000
    2       -2.090273   1.000000
    3        2.437647   1.000000
    4        3.712152   1.000000
    5        9.397965   0.000000
    6       12.087304   0.000000
    7       12.792796   0.000000
    8       14.917971   0.000000
 
 -0.4347826E+00  0.1739130E+00  0.0000000E+00  0.1972549E-02
    1       -5.865422   1.000000
    2       -2.199582   1.000000
    3        2.274040   1.000000
    4        3.847228   1.000000
    5        9.511566   0.000000
    6       12.078048   0.000000
    7       12.613388   0.000000
    8       15.492444   0.000000
 
 -0.3913043E+00  0.1739130E+00  0.0000000E+00  0.1972549E-02
    1       -6.027355   1.000000
    2       -1.956827   1.000000
    3        2.164197   1.000000
    4        4.029817   1.000000
    5        9.657970   0.000000
    6       12.093291   0.000000
    7       12.431381   0.000000
    8       15.624914   0.000000
 
 -0.3478261E+00  0.1739130E+00  0.0000000E+00  0.1972549E-02
    1       -6.354329   1.000000
    2       -1.438574   1.000000
    3        2.113322   1.000000
    4        4.254607   1.000000
    5        9.830983   0.000000
    6       12.138725   0.000000
    7       12.237282   0.000000
    8       15.259504   0.000000
 
 -0.3043478E+00  0.1739130E+00  0.0000000E+00  0.1972549E-02
    1       -6.750313   1.000000
    2       -0.748000   1.000000
    3        2.128342   1.000000
    4        4.514064   1.000000
    5       10.017802   0.000000
    6       12.012428   0.000000
    7       12.209868   0.000000
    8       14.658224   0.000000
 
 -0.2608696E+00  0.1739130E+00  0.0000000E+00  0.1972549E-02
    1       -7.154288   1.000000
    2        0.037560   1.000000
    3        2.222226   1.000000
    4        4.797240   1.000000
    5       10.198786   0.000000
    6       11.737295   0.000000
    7       12.276243   0.000000
    8       14.028417   0.000000
 
 -0.2173913E+00  0.1739130E+00  0.0000000E+00  0.1972549E-02
    1       -7.534098   1.000000
    2        0.846299   1.000000
    3        2.427140   1.000000
    4        5.088044   1.000000
    5       10.345377   0.000000
    6       11.408674   0.000000
    7       12.233519   0.000000
    8       13.554565   0.000000
 
 -0.1739130E+00  0.1739130E+00  0.0000000E+00  0.9862743E-03
    1       -7.872922   1.000000
    2        1.567356   1.000000
    3        2.823416   1.000000
    4        5.362896   1.000000
    5       10.413137   0.000000
    6       11.055293   0.000000
    7       11.950211   0.000000
    8       13.409327   0.000000
 
  0.2173913E+00  0.2173913E+00  0.0000000E+00  0.4931372E-03
    1       -8.142079   1.000000
    2        2.982410   1.000000
    3        3.967713   1.000000
    4        3.967713   1.000000
    5        8.209739   0.000000
    6       11.468949   0.000000
    7       13.117811   0.000000
    8       13.117811   0.000000
 
  0.2608696E+00  0.2173913E+00  0.0000000E+00  0.1972549E-02
    1       -7.908719   1.000000
    2        2.362635   1.000000
    3        3.725844   1.000000
    4        3.730304   1.000000
    5        8.183013   0.000000
    6       11.152668   0.000000
    7       13.469177   0.000000
    8       13.540515   0.000000
 
  0.3043478E+00  0.2173913E+00  0.0000000E+00  0.1972549E-02
    1       -7.620346   1.000000
    2        1.603570   1.000000
    3        3.431427   1.000000
    4        3.539201   1.000000
    5        8.351669   0.000000
    6       10.984997   0.000000
    7       13.597208   0.000000
    8       13.842578   0.000000
 