       N       E                     dE             d eps       ncg     rms          rms(c)
DAV:   1     0.100808772990E+02    0.10081E+02   -0.39560E+03  5832   0.872E+02
DAV:   2    -0.117894561071E+02   -0.21870E+02   -0.21377E+02  8944   0.105E+02
DAV:   3    -0.120546851493E+02   -0.26523E+00   -0.26523E+00  6832   0.138E+01
DAV:   4    -0.120549690241E+02   -0.28387E-03   -0.28387E-03  8816   0.476E-01
DAV:   5    -0.120549691296E+02   -0.10544E-06   -0.10544E-06  6720   0.627E-03    0.409E+00
RMM:   6    -0.114264038870E+02    0.62857E+00   -0.69326E-01  5897   0.559E+00    0.171E+00
RMM:   7    -0.113611528838E+02    0.65251E-01   -0.11948E-01  6215   0.232E+00    0.737E-01
RMM:   8    -0.113541570147E+02    0.69959E-02   -0.21996E-02  6364   0.112E+00    0.834E-02
RMM:   9    -0.113544395798E+02   -0.28257E-03   -0.53081E-04  6837   0.182E-01    0.346E-02
RMM:  10    -0.113544906023E+02   -0.51023E-04   -0.95060E-05  6542   0.838E-02    0.113E-02
RMM:  11    -0.113544933441E+02   -0.27417E-05   -0.41881E-05  6438   0.411E-02    0.109E-02
RMM:  12    -0.113544869666E+02    0.63775E-05   -0.92496E-06  6532   0.201E-02    0.307E-04
RMM:  13    -0.113544869888E+02   -0.22168E-07   -0.11428E-07  4344   0.266E-03
   1 F= -.11354487E+02 E0= -.11354487E+02  d E =0.000000E+00
