   2   2   0   0
  0.1397695E+02  0.3406585E-09  0.3406585E-09  0.3406585E-09  0.1000000E-16
  1.000000000000000E-004
  CAR 
 unknown system                          
     27.08165494    -10.99225808  301      6.14893484      1.00000000
    -10.992  0.0000E+00  0.0000E+00
    -10.865  0.0000E+00  0.0000E+00
    -10.738  0.0000E+00  0.0000E+00
    -10.612  0.0000E+00  0.0000E+00
    -10.485  0.0000E+00  0.0000E+00
    -10.358  0.0000E+00  0.0000E+00
    -10.231  0.0000E+00  0.0000E+00
    -10.104  0.0000E+00  0.0000E+00
     -9.977  0.0000E+00  0.0000E+00
     -9.850  0.0000E+00  0.0000E+00
     -9.723  0.0000E+00  0.0000E+00
     -9.596  0.0000E+00  0.0000E+00
     -9.469  0.0000E+00  0.0000E+00
     -9.342  0.0000E+00  0.0000E+00
     -9.215  0.2888E-03  0.3666E-04
     -9.089  0.8009E-03  0.1744E-03
     -8.962  0.1189E-02  0.4554E-03
     -8.835  0.2272E-02  0.7760E-03
     -8.708  0.1810E-02  0.1122E-02
     -8.581  0.1054E-02  0.1565E-02
     -8.454  0.2127E-02  0.2008E-02
     -8.327  0.1531E-02  0.2536E-02
     -8.200  0.3558E-02  0.3181E-02
     -8.073  0.2986E-02  0.3729E-02
     -7.946  0.3842E-02  0.4419E-02
     -7.819  0.2566E-02  0.5001E-02
     -7.693  0.2751E-02  0.5644E-02
     -7.566  0.4074E-02  0.6524E-02
     -7.439  0.3389E-02  0.7342E-02
     -7.312  0.4843E-02  0.8130E-02
     -7.185  0.4110E-02  0.9056E-02
     -7.058  0.2231E-02  0.9982E-02
     -6.931  0.7565E-02  0.1107E-01
     -6.804  0.5554E-02  0.1217E-01
     -6.677  0.3105E-02  0.1323E-01
     -6.550  0.6509E-02  0.1459E-01
     -6.423  0.9355E-02  0.1641E-01
     -6.296  0.7635E-02  0.1777E-01
     -6.170  0.1060E-01  0.1969E-01
     -6.043  0.6742E-02  0.2103E-01
     -5.916  0.9028E-02  0.2268E-01
     -5.789  0.8182E-02  0.2429E-01
     -5.662  0.7247E-02  0.2565E-01
     -5.535  0.6271E-02  0.2716E-01
     -5.408  0.7138E-02  0.2870E-01
     -5.281  0.8438E-02  0.3025E-01
     -5.154  0.9058E-02  0.3196E-01
     -5.027  0.2038E-02  0.3279E-01
     -4.900  0.0000E+00  0.3279E-01
     -4.774  0.0000E+00  0.3279E-01
     -4.647  0.0000E+00  0.3279E-01
     -4.520  0.0000E+00  0.3279E-01
     -4.393  0.0000E+00  0.3279E-01
     -4.266  0.0000E+00  0.3279E-01
     -4.139  0.0000E+00  0.3279E-01
     -4.012  0.0000E+00  0.3279E-01
     -3.885  0.0000E+00  0.3279E-01
     -3.758  0.0000E+00  0.3279E-01
     -3.631  0.0000E+00  0.3279E-01
     -3.504  0.0000E+00  0.3279E-01
     -3.377  0.0000E+00  0.3279E-01
     -3.251  0.0000E+00  0.3279E-01
     -3.124  0.0000E+00  0.3279E-01
     -2.997  0.0000E+00  0.3279E-01
     -2.870  0.0000E+00  0.3279E-01
     -2.743  0.5137E-05  0.3279E-01
     -2.616  0.1616E-02  0.3308E-01
     -2.489  0.2542E-02  0.3358E-01
     -2.362  0.5245E-02  0.3461E-01
     -2.235  0.7723E-02  0.3603E-01
     -2.108  0.1419E-01  0.3856E-01
     -1.981  0.1768E-01  0.4217E-01
     -1.855  0.1390E-01  0.4528E-01
     -1.728  0.8140E-02  0.4677E-01
     -1.601  0.9916E-02  0.4863E-01
     -1.474  0.5077E-02  0.4957E-01
     -1.347  0.2557E-02  0.5057E-01
     -1.220  0.6112E-02  0.5187E-01
     -1.093  0.2166E-02  0.5266E-01
     -0.966  0.6239E-02  0.5358E-01
     -0.839  0.5372E-02  0.5440E-01
     -0.712  0.2550E-02  0.5498E-01
     -0.585  0.2684E-02  0.5564E-01
     -0.458  0.1683E-02  0.5622E-01
     -0.332  0.5061E-02  0.5711E-01
     -0.205  0.1529E-02  0.5738E-01
     -0.078  0.3276E-02  0.5789E-01
      0.049  0.2526E-02  0.5870E-01
      0.176  0.4505E-02  0.5953E-01
      0.303  0.6015E-02  0.6098E-01
      0.430  0.6854E-02  0.6261E-01
      0.557  0.1182E-01  0.6492E-01
      0.684  0.5123E-02  0.6621E-01
      0.811  0.1279E-01  0.6823E-01
      0.938  0.5127E-02  0.6957E-01
      1.064  0.5053E-02  0.7086E-01
      1.191  0.1319E-01  0.7328E-01
      1.318  0.5636E-02  0.7449E-01
      1.445  0.6727E-02  0.7624E-01
      1.572  0.1238E-01  0.7864E-01
      1.699  0.8092E-02  0.7996E-01
      1.826  0.1404E-01  0.8246E-01
      1.953  0.1119E-01  0.8487E-01
      2.080  0.9509E-02  0.8698E-01
      2.207  0.1316E-01  0.8939E-01
      2.334  0.1192E-01  0.9211E-01
      2.461  0.1191E-01  0.9421E-01
      2.587  0.1092E-01  0.9661E-01
      2.714  0.1148E-01  0.9905E-01
      2.841  0.9161E-02  0.1008E+00
      2.968  0.1220E-01  0.1032E+00
      3.095  0.6780E-02  0.1053E+00
      3.222  0.1388E-01  0.1080E+00
      3.349  0.8525E-02  0.1095E+00
      3.476  0.1106E-01  0.1116E+00
      3.603  0.1259E-01  0.1138E+00
      3.730  0.9404E-02  0.1157E+00
      3.857  0.1027E-01  0.1176E+00
      3.983  0.1050E-01  0.1195E+00
      4.110  0.6688E-02  0.1211E+00
      4.237  0.4691E-02  0.1227E+00
      4.364  0.4615E-02  0.1241E+00
      4.491  0.6099E-02  0.1254E+00
      4.618  0.2674E-02  0.1262E+00
      4.745  0.5001E-02  0.1273E+00
      4.872  0.2743E-02  0.1278E+00
      4.999  0.3821E-02  0.1286E+00
      5.126  0.2103E-02  0.1290E+00
      5.253  0.2669E-02  0.1297E+00
      5.380  0.8875E-03  0.1300E+00
      5.506  0.7499E-03  0.1304E+00
      5.633  0.1939E-02  0.1308E+00
      5.760  0.1402E-02  0.1310E+00
      5.887  0.3792E-03  0.1311E+00
      6.014  0.1699E-03  0.1311E+00
      6.141  0.0000E+00  0.1311E+00
      6.268  0.0000E+00  0.1311E+00
      6.395  0.0000E+00  0.1311E+00
      6.522  0.0000E+00  0.1311E+00
      6.649  0.0000E+00  0.1311E+00
      6.776  0.0000E+00  0.1311E+00
      6.902  0.0000E+00  0.1311E+00
      7.029  0.0000E+00  0.1311E+00
      7.156  0.3421E-03  0.1312E+00
      7.283  0.1164E-02  0.1314E+00
      7.410  0.1694E-02  0.1318E+00
      7.537  0.2317E-02  0.1323E+00
      7.664  0.2550E-02  0.1329E+00
      7.791  0.3701E-02  0.1338E+00
      7.918  0.4952E-02  0.1346E+00
      8.045  0.3641E-02  0.1355E+00
      8.172  0.5503E-02  0.1366E+00
      8.299  0.3570E-02  0.1379E+00
      8.425  0.6911E-02  0.1393E+00
      8.552  0.7965E-02  0.1406E+00
      8.679  0.9625E-02  0.1423E+00
      8.806  0.9212E-02  0.1441E+00
      8.933  0.9670E-02  0.1463E+00
      9.060  0.1524E-01  0.1495E+00
      9.187  0.1521E-01  0.1526E+00
      9.314  0.1328E-01  0.1561E+00
      9.441  0.1313E-01  0.1583E+00
      9.568  0.6518E-02  0.1607E+00
      9.695  0.1228E-01  0.1629E+00
      9.821  0.1309E-01  0.1658E+00
      9.948  0.7415E-02  0.1672E+00
     10.075  0.7446E-02  0.1687E+00
     10.202  0.9504E-02  0.1703E+00
     10.329  0.6377E-02  0.1719E+00
     10.456  0.1110E-01  0.1739E+00
     10.583  0.1352E-01  0.1768E+00
     10.710  0.1997E-01  0.1804E+00
     10.837  0.1365E-01  0.1832E+00
     10.964  0.2073E-01  0.1870E+00
     11.091  0.1556E-01  0.1903E+00
     11.218  0.1016E-01  0.1922E+00
     11.344  0.1288E-01  0.1945E+00
     11.471  0.8305E-02  0.1965E+00
     11.598  0.8060E-02  0.1981E+00
     11.725  0.1776E-01  0.2012E+00
     11.852  0.9543E-02  0.2033E+00
     11.979  0.8403E-02  0.2048E+00
     12.106  0.1289E-01  0.2072E+00
     12.233  0.1013E-01  0.2097E+00
     12.360  0.1501E-01  0.2125E+00
     12.487  0.1602E-01  0.2152E+00
     12.614  0.1040E-01  0.2171E+00
     12.740  0.1162E-01  0.2194E+00
     12.867  0.1028E-01  0.2213E+00
     12.994  0.1531E-01  0.2240E+00
     13.121  0.9520E-02  0.2262E+00
     13.248  0.1146E-01  0.2285E+00
     13.375  0.6685E-02  0.2300E+00
     13.502  0.8561E-02  0.2316E+00
     13.629  0.7937E-02  0.2331E+00
     13.756  0.6242E-02  0.2344E+00
     13.883  0.4765E-02  0.2354E+00
     14.010  0.1136E-01  0.2378E+00
     14.137  0.8838E-02  0.2396E+00
     14.263  0.6093E-02  0.2408E+00
     14.390  0.7918E-02  0.2420E+00
     14.517  0.8135E-02  0.2434E+00
     14.644  0.1354E-01  0.2466E+00
     14.771  0.1596E-01  0.2494E+00
     14.898  0.1222E-01  0.2522E+00
     15.025  0.4555E-02  0.2536E+00
     15.152  0.7128E-02  0.2549E+00
     15.279  0.3278E-02  0.2556E+00
     15.406  0.4688E-02  0.2563E+00
     15.533  0.5265E-02  0.2580E+00
     15.659  0.2185E-02  0.2590E+00
     15.786  0.8588E-02  0.2607E+00
     15.913  0.7130E-02  0.2619E+00
     16.040  0.7611E-02  0.2638E+00
     16.167  0.1115E-01  0.2664E+00
     16.294  0.9353E-02  0.2686E+00
     16.421  0.8482E-02  0.2703E+00
     16.548  0.9601E-02  0.2722E+00
     16.675  0.1409E-01  0.2748E+00
     16.802  0.9795E-02  0.2768E+00
     16.929  0.7793E-02  0.2784E+00
     17.056  0.1013E-01  0.2813E+00
     17.182  0.9160E-02  0.2834E+00
     17.309  0.1507E-01  0.2863E+00
     17.436  0.1556E-01  0.2891E+00
     17.563  0.1242E-01  0.2915E+00
     17.690  0.1219E-01  0.2942E+00
     17.817  0.1424E-01  0.2969E+00
     17.944  0.1168E-01  0.2994E+00
     18.071  0.9727E-02  0.3014E+00
     18.198  0.1169E-01  0.3036E+00
     18.325  0.9939E-02  0.3057E+00
     18.452  0.9705E-02  0.3076E+00
     18.578  0.4741E-02  0.3085E+00
     18.705  0.7502E-02  0.3101E+00
     18.832  0.4857E-02  0.3109E+00
     18.959  0.8280E-02  0.3124E+00
     19.086  0.1134E-01  0.3140E+00
     19.213  0.6563E-02  0.3159E+00
     19.340  0.3564E-02  0.3169E+00
     19.467  0.7619E-02  0.3179E+00
     19.594  0.4844E-02  0.3193E+00
     19.721  0.1246E-01  0.3217E+00
     19.848  0.1139E-01  0.3236E+00
     19.975  0.1279E-01  0.3258E+00
     20.101  0.1152E-01  0.3277E+00
     20.228  0.1111E-01  0.3303E+00
     20.355  0.1501E-01  0.3329E+00
     20.482  0.8652E-02  0.3351E+00
     20.609  0.7617E-02  0.3370E+00
     20.736  0.8570E-02  0.3389E+00
     20.863  0.8987E-02  0.3410E+00
     20.990  0.1045E-01  0.3430E+00
     21.117  0.9207E-02  0.3448E+00
     21.244  0.8074E-02  0.3461E+00
     21.371  0.1058E-01  0.3478E+00
     21.497  0.8621E-02  0.3496E+00
     21.624  0.9349E-02  0.3517E+00
     21.751  0.7028E-02  0.3529E+00
     21.878  0.1717E-01  0.3561E+00
     22.005  0.2666E-01  0.3616E+00
     22.132  0.2733E-01  0.3668E+00
     22.259  0.2013E-01  0.3708E+00
     22.386  0.1328E-01  0.3731E+00
     22.513  0.7548E-02  0.3752E+00
     22.640  0.6810E-02  0.3766E+00
     22.767  0.4594E-02  0.3776E+00
     22.894  0.5437E-02  0.3788E+00
     23.020  0.7445E-02  0.3800E+00
     23.147  0.1911E-02  0.3809E+00
     23.274  0.6681E-02  0.3821E+00
     23.401  0.5584E-02  0.3832E+00
     23.528  0.2482E-02  0.3837E+00
     23.655  0.3593E-02  0.3847E+00
     23.782  0.5096E-03  0.3852E+00
     23.909  0.4813E-02  0.3858E+00
     24.036  0.5804E-02  0.3868E+00
     24.163  0.4026E-02  0.3881E+00
     24.290  0.7344E-02  0.3894E+00
     24.416  0.5885E-02  0.3907E+00
     24.543  0.6909E-02  0.3917E+00
     24.670  0.4432E-02  0.3924E+00
     24.797  0.1148E-02  0.3926E+00
     24.924  0.1534E-02  0.3929E+00
     25.051  0.1490E-02  0.3932E+00
     25.178  0.0000E+00  0.3933E+00
     25.305  0.1274E-03  0.3933E+00
     25.432  0.0000E+00  0.3934E+00
     25.559  0.0000E+00  0.3934E+00
     25.686  0.0000E+00  0.3934E+00
     25.813  0.0000E+00  0.3934E+00
     25.939  0.0000E+00  0.3934E+00
     26.066  0.0000E+00  0.3934E+00
     26.193  0.0000E+00  0.3934E+00
     26.320  0.0000E+00  0.3934E+00
     26.447  0.0000E+00  0.3934E+00
     26.574  0.0000E+00  0.3934E+00
     26.701  0.0000E+00  0.3934E+00
     26.828  0.0000E+00  0.3934E+00
     26.955  0.0000E+00  0.3934E+00
     27.082  0.0000E+00  0.3934E+00
