    2    2   61    1
  0.1397695E+02  0.3406584E-09  0.3406584E-09  0.3406584E-09  0.1000000E-16
  1.000000000000000E-004
  CAR 
 unknown system                          
      8    364     12
 
  0.0000000E+00  0.0000000E+00  0.0000000E+00  0.8218953E-04
    1       -9.261626   1.000000
    2        5.760450   1.000000
    3        5.900742   1.000000
    4        6.037287   1.000000
    5        9.029425   0.000000
    6        9.134653   0.000000
    7        9.245112   0.000000
    8       10.290180   0.000000
    9       15.366170   0.000000
   10       18.735016   0.000000
   11       18.735623   0.000000
   12       20.082547   0.000000
 
  0.4347826E-01  0.0000000E+00  0.0000000E+00  0.6575162E-03
    1       -9.231157   1.000000
    2        5.478237   1.000000
    3        5.804065   1.000000
    4        5.969828   1.000000
    5        9.115809   0.000000
    6        9.207126   0.000000
    7        9.315197   0.000000
    8       10.477319   0.000000
    9       15.493373   0.000000
   10       18.386260   0.000000
   11       18.398580   0.000000
   12       20.076208   0.000000
 
  0.8695652E-01  0.0000000E+00  0.0000000E+00  0.6575162E-03
    1       -9.139951   1.000000
    2        4.727648   1.000000
    3        5.627116   1.000000
    4        5.792144   1.000000
    5        9.274469   0.000000
    6        9.345106   0.000000
    7        9.496435   0.000000
    8       11.010810   0.000000
    9       15.850696   0.000000
   10       17.833784   0.000000
   11       17.847449   0.000000
   12       19.781586   0.000000
 
  0.1304348E+00  0.0000000E+00  0.0000000E+00  0.6575162E-03
    1       -8.988889   1.000000
    2        3.778521   1.000000
    3        5.396039   1.000000
    4        5.553528   1.000000
    5        9.210134   0.000000
    6        9.652714   0.000000
    7        9.797202   0.000000
    8       11.718474   0.000000
    9       16.352261   0.000000
   10       17.368284   0.000000
   11       17.373525   0.000000
   12       19.505076   0.000000
 
  0.1739130E+00  0.0000000E+00  0.0000000E+00  0.6575162E-03
    1       -8.779498   1.000000
    2        2.764829   1.000000
    3        5.144255   1.000000
    4        5.295484   1.000000
    5        9.091955   0.000000
    6        9.972721   0.000000
    7       10.124635   0.000000
    8       12.452354   0.000000
    9       16.811410   0.000000
   10       17.060471   0.000000
   11       17.065038   0.000000
   12       19.470165   0.000000
 
  0.2173913E+00  0.0000000E+00  0.0000000E+00  0.6575162E-03
    1       -8.514470   1.000000
    2        1.747218   1.000000
    3        4.897105   1.000000
    4        5.044297   1.000000
    5        8.959172   0.000000
    6       10.250263   0.000000
    7       10.416452   0.000000
    8       13.146653   0.000000
    9       16.922935   0.000000
   10       16.966887   0.000000
   11       17.050830   0.000000
   12       19.870330   0.000000
 
  0.2608696E+00  0.0000000E+00  0.0000000E+00  0.6575162E-03
    1       -8.198265   1.000000
    2        0.759024   1.000000
    3        4.670308   1.000000
    4        4.815287   1.000000
    5        8.830660   0.000000
    6       10.449000   0.000000
    7       10.631384   0.000000
    8       13.760660   0.000000
    9       17.028336   0.000000
   10       17.084099   0.000000
   11       17.099357   0.000000
   12       20.606410   0.000000
 
  0.3043478E+00  0.0000000E+00  0.0000000E+00  0.6575162E-03
    1       -7.838538   1.000000
    2       -0.175907   1.000000
    3        4.473203   1.000000
    4        4.617214   1.000000
    5        8.716431   0.000000
    6       10.559345   0.000000
    7       10.755583   0.000000
    8       14.243915   0.000000
    9       17.109221   0.000000
   10       17.395392   0.000000
   11       17.462316   0.000000
   12       21.387869   0.000000
 
  0.3478261E+00  0.0000000E+00  0.0000000E+00  0.6575162E-03
    1       -7.449077   1.000000
    2       -1.034023   1.000000
    3        4.311320   1.000000
    4        4.455111   1.000000
    5        8.621836   0.000000
    6       10.597576   0.000000
    7       10.803415   0.000000
    8       14.547790   0.000000
    9       17.311408   0.000000
   10       17.947594   0.000000
   11       18.027700   0.000000
   12       21.952195   0.000000
 
  0.3913043E+00  0.0000000E+00  0.0000000E+00  0.6575162E-03
    1       -7.055738   1.000000
    2       -1.783228   1.000000
    3        4.187912   1.000000
    4        4.331852   1.000000
    5        8.549620   0.000000
    6       10.592812   0.000000
    7       10.804368   0.000000
    8       14.683021   0.000000
    9       17.671422   0.000000
   10       18.654686   0.000000
   11       18.745503   0.000000
   12       22.147650   0.000000
 
  0.4347826E+00  0.0000000E+00  0.0000000E+00  0.6575162E-03
    1       -6.708057   1.000000
    2       -2.370088   1.000000
    3        4.104834   1.000000
    4        4.249019   1.000000
    5        8.501073   0.000000
    6       10.573102   0.000000
    7       10.787671   0.000000
    8       14.719903   0.000000
    9       18.075964   0.000000
   10       19.430801   0.000000
   11       19.534996   0.000000
   12       22.046246   0.000000
 
  0.4782609E+00  0.0000000E+00  0.0000000E+00  0.6575162E-03
    1       -6.490212   1.000000
    2       -2.708059   1.000000
    3        4.063084   1.000000
    4        4.207436   1.000000
    5        8.476714   0.000000
    6       10.558309   0.000000
    7       10.774147   0.000000
    8       14.722869   0.000000
    9       18.355377   0.000000
   10       20.066656   0.000000
   11       20.191016   0.000000
   12       21.887035   0.000000
 
  0.4347826E-01  0.4347826E-01  0.0000000E+00  0.4931372E-03
    1       -9.221052   1.000000
    2        5.560119   1.000000
    3        5.708529   1.000000
    4        5.824912   1.000000
    5        8.985296   0.000000
    6        9.371296   0.000000
    7        9.402151   0.000000
    8       10.503890   0.000000
    9       15.535925   0.000000
   10       17.940487   0.000000
   11       18.779968   0.000000
   12       20.238086   0.000000
 
  0.8695652E-01  0.4347826E-01  0.0000000E+00  0.1972549E-02
    1       -9.150029   1.000000
    2        4.960058   1.000000
    3        5.484503   1.000000
    4        5.776240   1.000000
    5        8.977162   0.000000
    6        9.542798   0.000000
    7        9.663044   0.000000
    8       10.879406   0.000000
    9       15.818158   0.000000
   10       17.355608   0.000000
   11       18.502073   0.000000
   12       20.131577   0.000000
 
  0.1304348E+00  0.4347826E-01  0.0000000E+00  0.1972549E-02
    1       -9.018850   1.000000
    2        4.078105   1.000000
    3        5.227400   1.000000
    4        5.621647   1.000000
    5        9.102957   0.000000
    6        9.587728   0.000000
    7       10.004572   0.000000
    8       11.512625   0.000000
    9       16.282316   0.000000
   10       16.864326   0.000000
   11       18.044836   0.000000
   12       19.836382   0.000000
 
  0.1739130E+00  0.4347826E-01  0.0000000E+00  0.1972549E-02
    1       -8.828762   1.000000
    2        3.092292   1.000000
    3        4.964860   1.000000
    4        5.396104   1.000000
    5        9.187989   0.000000
    6        9.686062   0.000000
    7       10.355759   0.000000
    8       12.204884   0.000000
    9       16.509587   0.000000
   10       16.824902   0.000000
   11       17.690059   0.000000
   12       19.663808   0.000000
 
  0.2173913E+00  0.4347826E-01  0.0000000E+00  0.1972549E-02
    1       -8.582057   1.000000
    2        2.081871   1.000000
    3        4.717556   1.000000
    4        5.142834   1.000000
    5        9.132761   0.000000
    6        9.914505   0.000000
    7       10.662829   0.000000
    8       12.856670   0.000000
    9       16.389526   0.000000
   10       17.175957   0.000000
   11       17.519671   0.000000
   12       19.847064   0.000000
 
  0.2608696E+00  0.4347826E-01  0.0000000E+00  0.1972549E-02
    1       -8.282467   1.000000
    2        1.088204   1.000000
    3        4.498308   1.000000
    4        4.890258   1.000000
    5        9.025616   0.000000
    6       10.148496   0.000000
    7       10.885345   0.000000
    8       13.435258   0.000000
    9       16.486434   0.000000
   10       17.289811   0.000000
   11       17.570573   0.000000
   12       20.439324   0.000000
 
  0.3043478E+00  0.4347826E-01  0.0000000E+00  0.1972549E-02
    1       -7.936400   1.000000
    2        0.138288   1.000000
    3        4.314554   1.000000
    4        4.655217   1.000000
    5        8.914848   0.000000
    6       10.318740   0.000000
    7       11.006424   0.000000
    8       13.931870   0.000000
    9       16.755803   0.000000
   10       17.367516   0.000000
   11       17.853547   0.000000
   12       21.194971   0.000000
 
  0.3478261E+00  0.4347826E-01  0.0000000E+00  0.1972549E-02
    1       -7.555125   1.000000
    2       -0.744481   1.000000
    3        4.170149   1.000000
    4        4.447978   1.000000
    5        8.816717   0.000000
    6       10.415980   0.000000
    7       11.037446   0.000000
    8       14.328714   0.000000
    9       17.051627   0.000000
   10       17.683224   0.000000
   11       18.348533   0.000000
   12       21.817334   0.000000
 
  0.3913043E+00  0.4347826E-01  0.0000000E+00  0.1972549E-02
    1       -7.159536   1.000000
    2       -1.531558   1.000000
    3        4.066049   1.000000
    4        4.275858   1.000000
    5        8.737939   0.000000
    6       10.461668   0.000000
    7       11.008041   0.000000
    8       14.594368   0.000000
    9       17.375124   0.000000
   10       18.265408   0.000000
   11       19.001177   0.000000
   12       22.093549   0.000000
 
  0.4347826E+00  0.4347826E-01  0.0000000E+00  0.1972549E-02
    1       -6.789657   1.000000
    2       -2.178116   1.000000
    3        3.998899   1.000000
    4        4.147041   1.000000
    5        8.681554   0.000000
    6       10.484829   0.000000
    7       10.950451   0.000000
    8       14.731015   0.000000
    9       17.792939   0.000000
   10       18.955282   0.000000
   11       19.712687   0.000000
   12       22.027778   0.000000
 
  0.4782609E+00  0.4347826E-01  0.0000000E+00  0.1972549E-02
    1       -6.517991   1.000000
    2       -2.608655   1.000000
    3        3.955589   1.000000
    4        4.077394   1.000000
    5        8.648903   0.000000
    6       10.508260   0.000000
    7       10.889930   0.000000
    8       14.784673   0.000000
    9       18.184915   0.000000
   10       19.625660   0.000000
   11       20.220263   0.000000
   12       21.858049   0.000000
 
 -0.4782609E+00  0.4347826E-01  0.0000000E+00  0.1972549E-02
    1       -6.439694   1.000000
    2       -2.726482   1.000000
    3        3.923346   1.000000
    4        4.081043   1.000000
    5        8.640489   0.000000
    6       10.543775   0.000000
    7       10.842281   0.000000
    8       14.797910   0.000000
    9       18.330080   0.000000
   10       19.982256   0.000000
   11       20.131942   0.000000
   12       21.829870   0.000000
 
 -0.4347826E+00  0.4347826E-01  0.0000000E+00  0.1972549E-02
    1       -6.592198   1.000000
    2       -2.493749   1.000000
    3        3.915867   1.000000
    4        4.144631   1.000000
    5        8.656389   0.000000
    6       10.590482   0.000000
    7       10.815391   0.000000
    8       14.783020   0.000000
    9       18.135898   0.000000
   10       19.251519   0.000000
   11       20.123835   0.000000
   12       21.901683   0.000000
 
 -0.3913043E+00  0.4347826E-01  0.0000000E+00  0.1972549E-02
    1       -6.907137   1.000000
    2       -1.979582   1.000000
    3        3.945791   1.000000
    4        4.254853   1.000000
    5        8.696385   0.000000
    6       10.631235   0.000000
    7       10.812992   0.000000
    8       14.718544   0.000000
    9       17.764132   0.000000
   10       18.415906   0.000000
   11       19.626908   0.000000
   12       22.054045   0.000000
 
 -0.3478261E+00  0.4347826E-01  0.0000000E+00  0.1972549E-02
    1       -7.291820   1.000000
    2       -1.278622   1.000000
    3        4.017453   1.000000
    4        4.405625   1.000000
    5        8.759866   0.000000
    6       10.635017   0.000000
    7       10.831685   0.000000
    8       14.555430   0.000000
    9       17.416244   0.000000
   10       17.657596   0.000000
   11       18.971908   0.000000
   12       22.032409   0.000000
 
 -0.3043478E+00  0.4347826E-01  0.0000000E+00  0.1972549E-02
    1       -7.685803   1.000000
    2       -0.454814   1.000000
    3        4.131977   1.000000
    4        4.592437   1.000000
    5        8.845454   0.000000
    6       10.579429   0.000000
    7       10.839553   0.000000
    8       14.250391   0.000000
    9       17.047832   0.000000
   10       17.204319   0.000000
   11       18.373804   0.000000
   12       21.632082   0.000000
 
 -0.2608696E+00  0.4347826E-01  0.0000000E+00  0.1972549E-02
    1       -8.056970   1.000000
    2        0.454112   1.000000
    3        4.288799   1.000000
    4        4.809983   1.000000
    5        8.950296   0.000000
    6       10.450022   0.000000
    7       10.787486   0.000000
    8       13.810437   0.000000
    9       16.640084   0.000000
   10       17.109171   0.000000
   11       17.938319   0.000000
   12       20.940455   0.000000
 
 -0.2173913E+00  0.4347826E-01  0.0000000E+00  0.1972549E-02
    1       -8.388375   1.000000
    2        1.422347   1.000000
    3        4.485681   1.000000
    4        5.050565   1.000000
    5        9.068736   0.000000
    6       10.238541   0.000000
    7       10.638873   0.000000
    8       13.274396   0.000000
    9       16.461252   0.000000
   10       17.049792   0.000000
   11       17.689986   0.000000
   12       20.220353   0.000000
 
 -0.1739130E+00  0.4347826E-01  0.0000000E+00  0.1972549E-02
    1       -8.670793   1.000000
    2        2.426095   1.000000
    3        4.718060   1.000000
    4        5.301992   1.000000
    5        9.189556   0.000000
    6        9.959628   0.000000
    7       10.388432   0.000000
    8       12.667919   0.000000
    9       16.513299   0.000000
   10       16.964601   0.000000
   11       17.520880   0.000000
   12       19.783245   0.000000
 
 -0.1304348E+00  0.4347826E-01  0.0000000E+00  0.1972549E-02
    1       -8.898851   1.000000
    2        3.434437   1.000000
    3        4.977781   1.000000
    4        5.544436   1.000000
    5        9.288799   0.000000
    6        9.656649   0.000000
    7       10.071174   0.000000
    8       12.006211   0.000000
    9       16.610981   0.000000
   10       16.790414   0.000000
   11       17.568425   0.000000
   12       19.779690   0.000000
 
 -0.8695652E-01  0.4347826E-01  0.0000000E+00  0.1972549E-02
    1       -9.069408   1.000000
    2        4.394541   1.000000
    3        5.250730   1.000000
    4        5.747084   1.000000
    5        9.302988   0.000000
    6        9.403659   0.000000
    7        9.760525   0.000000
    8       11.331098   0.000000
    9       16.111199   0.000000
   10       17.217394   0.000000
   11       17.891471   0.000000
   12       20.053044   0.000000
 
 -0.4347826E-01  0.4347826E-01  0.0000000E+00  0.9862743E-03
    1       -9.180549   1.000000
    2        5.196574   1.000000
    3        5.513142   1.000000
    4        5.871658   1.000000
    5        9.183855   0.000000
    6        9.260113   0.000000
    7        9.525851   0.000000
    8       10.761938   0.000000
    9       15.698271   0.000000
   10       17.782837   0.000000
   11       18.301477   0.000000
   12       20.308692   0.000000
 
  0.8695652E-01  0.8695652E-01  0.0000000E+00  0.4931372E-03
    1       -9.099549   1.000000
    2        5.038773   1.000000
    3        5.252081   1.000000
    4        5.317786   1.000000
    5        8.734279   0.000000
    6        9.959144   0.000000
    7        9.969903   0.000000
    8       10.949362   0.000000
    9       16.017921   0.000000
   10       16.785027   0.000000
   11       18.913343   0.000000
   12       20.507525   0.000000
 
  0.1304348E+00  0.8695652E-01  0.0000000E+00  0.1972549E-02
    1       -8.988455   1.000000
    2        4.295909   1.000000
    3        4.974291   1.000000
    4        5.279625   1.000000
    5        8.682262   0.000000
    6       10.142732   0.000000
    7       10.340827   0.000000
    8       11.365230   0.000000
    9       16.299324   0.000000
   10       16.422468   0.000000
   11       18.718440   0.000000
   12       20.454854   0.000000
 
  0.1739130E+00  0.8695652E-01  0.0000000E+00  0.1972549E-02
    1       -8.818089   1.000000
    2        3.378033   1.000000
    3        4.702538   1.000000
    4        5.135518   1.000000
    5        8.805834   0.000000
    6       10.127901   0.000000
    7       10.721234   0.000000
    8       11.944717   0.000000
    9       16.004478   0.000000
   10       16.946786   0.000000
   11       18.379870   0.000000
   12       20.226898   0.000000
 
  0.2173913E+00  0.8695652E-01  0.0000000E+00  0.1972549E-02
    1       -8.590385   1.000000
    2        2.402580   1.000000
    3        4.452922   1.000000
    4        4.911347   1.000000
    5        8.993163   0.000000
    6       10.098451   0.000000
    7       11.056854   0.000000
    8       12.463621   0.000000
    9       15.951713   0.000000
   10       17.436878   0.000000
   11       18.163041   0.000000
   12       20.184232   0.000000
 
  0.2608696E+00  0.8695652E-01  0.0000000E+00  0.1972549E-02
    1       -8.308503   1.000000
    2        1.423245   1.000000
    3        4.236417   1.000000
    4        4.653230   1.000000
    5        9.122314   0.000000
    6       10.136355   0.000000
    7       11.305363   0.000000
    8       12.883051   0.000000
    9       16.147887   0.000000
   10       17.708963   0.000000
   11       18.148215   0.000000
   12       20.518343   0.000000
 
  0.3043478E+00  0.8695652E-01  0.0000000E+00  0.1972549E-02
    1       -7.977842   1.000000
    2        0.473145   1.000000
    3        4.059399   1.000000
    4        4.392373   1.000000
    5        9.146817   0.000000
    6       10.235262   0.000000
    7       11.443705   0.000000
    8       13.268804   0.000000
    9       16.507555   0.000000
   10       17.811124   0.000000
   11       18.360675   0.000000
   12       21.138162   0.000000
 
  0.3478261E+00  0.8695652E-01  0.0000000E+00  0.1972549E-02
    1       -7.607704   1.000000
    2       -0.422032   1.000000
    3        3.923931   1.000000
    4        4.148903   1.000000
    5        9.108921   0.000000
    6       10.329228   0.000000
    7       11.476920   0.000000
    8       13.687234   0.000000
    9       16.865690   0.000000
   10       17.993707   0.000000
   11       18.787568   0.000000
   12       21.738117   0.000000
 
  0.3913043E+00  0.8695652E-01  0.0000000E+00  0.1972549E-02
    1       -7.215077   1.000000
    2       -1.235176   1.000000
    3        3.820378   1.000000
    4        3.945445   1.000000
    5        9.055152   0.000000
    6       10.388210   0.000000
    7       11.432365   0.000000
    8       14.130481   0.000000
    9       17.116960   0.000000
   10       18.416107   0.000000
   11       19.375195   0.000000
   12       22.043488   0.000000
 
  0.4347826E+00  0.8695652E-01  0.0000000E+00  0.1972549E-02
    1       -6.832175   1.000000
    2       -1.927657   1.000000
    3        3.693344   1.000000
    4        3.845139   1.000000
    5        9.009297   0.000000
    6       10.425025   0.000000
    7       11.343958   0.000000
    8       14.526174   0.000000
    9       17.376728   0.000000
   10       18.962016   0.000000
   11       20.006805   0.000000
   12       22.000406   0.000000
 
  0.4782609E+00  0.8695652E-01  0.0000000E+00  0.1972549E-02
    1       -6.519377   1.000000
    2       -2.435072   1.000000
    3        3.552306   1.000000
    4        3.843172   1.000000
    5        8.981681   0.000000
    6       10.462393   0.000000
    7       11.240032   0.000000
    8       14.800564   0.000000
    9       17.732303   0.000000
   10       19.430833   0.000000
   11       20.354795   0.000000
   12       21.852457   0.000000
 
 -0.4782609E+00  0.8695652E-01  0.0000000E+00  0.1972549E-02
    1       -6.368821   1.000000
    2       -2.663056   1.000000
    3        3.442483   1.000000
    4        3.896878   1.000000
    5        8.976287   0.000000
    6       10.516669   0.000000
    7       11.138921   0.000000
    8       14.934656   0.000000
    9       18.057241   0.000000
   10       19.709781   0.000000
   11       19.955734   0.000000
   12       21.884506   0.000000
 
 -0.4347826E+00  0.8695652E-01  0.0000000E+00  0.1972549E-02
    1       -6.447751   1.000000
    2       -2.543455   1.000000
    3        3.373896   1.000000
    4        3.997237   1.000000
    5        8.994015   0.000000
    6       10.594188   0.000000
    7       11.049092   0.000000
    8       14.942120   0.000000
    9       18.084283   0.000000
   10       19.106346   0.000000
   11       20.003957   0.000000
   12       21.972718   0.000000
 
 -0.3913043E+00  0.8695652E-01  0.0000000E+00  0.1972549E-02
    1       -6.718551   1.000000
    2       -2.114359   1.000000
    3        3.350273   1.000000
    4        4.140116   1.000000
    5        9.034266   0.000000
    6       10.688351   0.000000
    7       10.971940   0.000000
    8       14.819431   0.000000
    9       17.854970   0.000000
   10       18.223359   0.000000
   11       20.194802   0.000000
   12       21.914638   0.000000
 
 -0.3478261E+00  0.8695652E-01  0.0000000E+00  0.1972549E-02
    1       -7.086843   1.000000
    2       -1.471897   1.000000
    3        3.373831   1.000000
    4        4.321407   1.000000
    5        9.095568   0.000000
    6       10.758117   0.000000
    7       10.922035   0.000000
    8       14.549702   0.000000
    9       17.423859   0.000000
   10       17.622044   0.000000
   11       19.930871   0.000000
   12       21.960630   0.000000
 
 -0.3043478E+00  0.8695652E-01  0.0000000E+00  0.1972549E-02
    1       -7.480766   1.000000
    2       -0.691507   1.000000
    3        3.446039   1.000000
    4        4.535912   1.000000
    5        9.175554   0.000000
    6       10.699806   0.000000
    7       10.953583   0.000000
    8       14.150257   0.000000
    9       16.774130   0.000000
   10       17.490504   0.000000
   11       19.402963   0.000000
   12       21.840848   0.000000
 
 -0.2608696E+00  0.8695652E-01  0.0000000E+00  0.1972549E-02
    1       -7.860519   1.000000
    2        0.181095   1.000000
    3        3.567819   1.000000
    4        4.776471   1.000000
    5        9.270072   0.000000
    6       10.538098   0.000000
    7       10.973163   0.000000
    8       13.686925   0.000000
    9       16.320440   0.000000
   10       17.426141   0.000000
   11       18.874474   0.000000
   12       21.378729   0.000000
 
 -0.2173913E+00  0.8695652E-01  0.0000000E+00  0.1972549E-02
    1       -8.205292   1.000000
    2        1.115017   1.000000
    3        3.739947   1.000000
    4        5.032585   1.000000
    5        9.371133   0.000000
    6       10.302941   0.000000
    7       10.885960   0.000000
    8       13.227662   0.000000
    9       16.092624   0.000000
   10       17.351799   0.000000
   11       18.416369   0.000000
   12       20.826429   0.000000
 
 -0.1739130E+00  0.8695652E-01  0.0000000E+00  0.1972549E-02
    1       -8.503800   1.000000
    2        2.081171   1.000000
    3        3.964220   1.000000
    4        5.288079   1.000000
    5        9.461799   0.000000
    6       10.016901   0.000000
    7       10.661907   0.000000
    8       12.788394   0.000000
    9       16.094423   0.000000
   10       17.255983   0.000000
   11       17.948528   0.000000
   12       20.515420   0.000000
 
 -0.1304348E+00  0.8695652E-01  0.0000000E+00  0.1972549E-02
    1       -8.749645   1.000000
    2        3.036648   1.000000
    3        4.248735   1.000000
    4        5.517833   1.000000
    5        9.501359   0.000000
    6        9.731909   0.000000
    7       10.349198   0.000000
    8       12.325841   0.000000
    9       16.304707   0.000000
   10       17.059412   0.000000
   11       17.581435   0.000000
   12       20.564265   0.000000
 
 -0.8695652E-01  0.8695652E-01  0.0000000E+00  0.9862743E-03
    1       -8.939038   1.000000
    2        3.888073   1.000000
    3        4.629830   1.000000
    4        5.685754   1.000000
    5        9.411650   0.000000
    6        9.523604   0.000000
    7       10.057678   0.000000
    8       11.814429   0.000000
    9       16.550754   0.000000
   10       16.709576   0.000000
   11       17.669274   0.000000
   12       20.766709   0.000000
 
  0.1304348E+00  0.1304348E+00  0.0000000E+00  0.4931372E-03
    1       -8.897975   1.000000
    2        4.302411   1.000000
    3        4.700560   1.000000
    4        4.729127   1.000000
    5        8.412347   0.000000
    6       10.725798   0.000000
    7       10.733177   0.000000
    8       11.321168   0.000000
    9       15.859509   0.000000
   10       16.750882   0.000000
   11       19.135605   0.000000
   12       20.945607   0.000000
 
  0.1739130E+00  0.1304348E+00  0.0000000E+00  0.1972549E-02
    1       -8.747564   1.000000
    2        3.553822   1.000000
    3        4.418801   1.000000
    4        4.648647   1.000000
    5        8.352197   0.000000
    6       10.839603   0.000000
    7       11.145636   0.000000
    8       11.675701   0.000000
    9       15.620057   0.000000
   10       17.231834   0.000000
   11       19.038247   0.000000
   12       20.969302   0.000000
 
  0.2173913E+00  0.1304348E+00  0.0000000E+00  0.1972549E-02
    1       -8.539325   1.000000
    2        2.659664   1.000000
    3        4.163709   1.000000
    4        4.485432   1.000000
    5        8.482650   0.000000
    6       10.749403   0.000000
    7       11.521033   0.000000
    8       12.074003   0.000000
    9       15.665366   0.000000
   10       17.767084   0.000000
   11       18.839151   0.000000
   12       20.831952   0.000000
 
  0.2608696E+00  0.1304348E+00  0.0000000E+00  0.1972549E-02
    1       -8.275984   1.000000
    2        1.726903   1.000000
    3        3.944336   1.000000
    4        4.244131   1.000000
    5        8.696649   0.000000
    6       10.685837   0.000000
    7       11.811857   0.000000
    8       12.325186   0.000000
    9       15.980099   0.000000
   10       18.194374   0.000000
   11       18.775919   0.000000
   12       20.911001   0.000000
 
  0.3043478E+00  0.1304348E+00  0.0000000E+00  0.1972549E-02
    1       -7.962117   1.000000
    2        0.800318   1.000000
    3        3.765195   1.000000
    4        3.971653   1.000000
    5        8.883259   0.000000
    6       10.688612   0.000000
    7       11.988319   0.000000
    8       12.531970   0.000000
    9       16.447056   0.000000
   10       18.413298   0.000000
   11       18.920032   0.000000
   12       21.303170   0.000000
 
  0.3478261E+00  0.1304348E+00  0.0000000E+00  0.1972549E-02
    1       -7.605506   1.000000
    2       -0.088852   1.000000
    3        3.612599   1.000000
    4        3.717138   1.000000
    5        8.987907   0.000000
    6       10.730839   0.000000
    7       12.046456   0.000000
    8       12.831836   0.000000
    9       16.906788   0.000000
   10       18.560530   0.000000
   11       19.275321   0.000000
   12       21.799615   0.000000
 
  0.3913043E+00  0.1304348E+00  0.0000000E+00  0.1972549E-02
    1       -7.220097   1.000000
    2       -0.912219   1.000000
    3        3.399450   1.000000
    4        3.588845   1.000000
    5        9.026934   0.000000
    6       10.761960   0.000000
    7       12.008081   0.000000
    8       13.283587   0.000000
    9       17.208794   0.000000
   10       18.847231   0.000000
   11       19.791987   0.000000
   12       22.084966   0.000000
 
  0.4347826E+00  0.1304348E+00  0.0000000E+00  0.1972549E-02
    1       -6.831914   1.000000
    2       -1.634498   1.000000
    3        3.170450   1.000000
    4        3.554559   1.000000
    5        9.040852   0.000000
    6       10.769707   0.000000
    7       11.907788   0.000000
    8       13.844240   0.000000
    9       17.346629   0.000000
   10       19.284784   0.000000
   11       20.332857   0.000000
   12       22.043843   0.000000
 
  0.4782609E+00  0.1304348E+00  0.0000000E+00  0.1972549E-02
    1       -6.490359   1.000000
    2       -2.200519   1.000000
    3        2.971352   1.000000
    4        3.576046   1.000000
    5        9.059043   0.000000
    6       10.771899   0.000000
    7       11.777280   0.000000
    8       14.411094   0.000000
    9       17.443087   0.000000
   10       19.666493   0.000000
   11       20.506099   0.000000
   12       21.907239   0.000000
 
 -0.4782609E+00  0.1304348E+00  0.0000000E+00  0.1972549E-02
    1       -6.278332   1.000000
    2       -2.523932   1.000000
    3        2.811726   1.000000
    4        3.648075   1.000000
    5        9.095959   0.000000
    6       10.787979   0.000000
    7       11.638278   0.000000
    8       14.851650   0.000000
    9       17.576130   0.000000
   10       19.801013   0.000000
   11       19.943017   0.000000
   12       21.987486   0.000000
 
 -0.4347826E+00  0.1304348E+00  0.0000000E+00  0.1972549E-02
    1       -6.280808   1.000000
    2       -2.518202   1.000000
    3        2.696701   1.000000
    4        3.767669   1.000000
    5        9.155985   0.000000
    6       10.830320   0.000000
    7       11.501563   0.000000
    8       15.040460   0.000000
    9       17.712956   0.000000
   10       19.025979   0.000000
   11       19.887831   0.000000