 running on   48 total cores
 distrk:  each k-point on   12 cores,    4 groups
 distr:  one band on    1 cores,   12 groups
 using from now: INCAR     
 vasp.5.4.4.18Apr17-6-g9f103f2a35 (build Nov 04 2020 14:40:39) complex          
  
 POSCAR found type information on POSCAR  B  As
 POSCAR found :  2 types and       2 ions
 scaLAPACK will be used

 ----------------------------------------------------------------------------- 
|                                                                             |
|           W    W    AA    RRRRR   N    N  II  N    N   GGGG   !!!           |
|           W    W   A  A   R    R  NN   N  II  NN   N  G    G  !!!           |
|           W    W  A    A  R    R  N N  N  II  N N  N  G       !!!           |
|           W WW W  AAAAAA  RRRRR   N  N N  II  N  N N  G  GGG   !            |
|           WW  WW  A    A  R   R   N   NN  II  N   NN  G    G                |
|           W    W  A    A  R    R  N    N  II  N    N   GGGG   !!!           |
|                                                                             |
|      For optimal performance we recommend to set                            |
|        NCORE= 4 - approx SQRT( number of cores)                             |
|      NCORE specifies how many cores store one orbital (NPAR=cpu/NCORE).     |
|      This setting can  greatly improve the performance of VASP for DFT.     |
|      The default,   NCORE=1            might be grossly inefficient         |
|      on modern multi-core architectures or massively parallel machines.     |
|      Do your own testing !!!!                                               |
|      Unfortunately you need to use the default for GW and RPA calculations. |
|      (for HF NCORE is supported but not extensively tested yet)             |
|                                                                             |
 ----------------------------------------------------------------------------- 


 ----------------------------------------------------------------------------- 
|                                                                             |
|           W    W    AA    RRRRR   N    N  II  N    N   GGGG   !!!           |
|           W    W   A  A   R    R  NN   N  II  NN   N  G    G  !!!           |
|           W    W  A    A  R    R  N N  N  II  N N  N  G       !!!           |
|           W WW W  AAAAAA  RRRRR   N  N N  II  N  N N  G  GGG   !            |
|           WW  WW  A    A  R   R   N   NN  II  N   NN  G    G                |
|           W    W  A    A  R    R  N    N  II  N    N   GGGG   !!!           |
|                                                                             |
|      You have enabled k-point parallelism (KPAR>1).                         |
|      This developmental code was originally  written by Paul Kent at ORNL,  |
|      and carefully double checked in Vienna.                                |
|      GW as well as linear response parallelism added by Martijn Marsman     |
|      and Georg Kresse.                                                      |
|      Carefully verify results versus KPAR=1.                                |
|      Report problems to Paul Kent and Vienna.                               |
|                                                                             |
 ----------------------------------------------------------------------------- 

 LDA part: xc-table for Pade appr. of Perdew
 POSCAR found type information on POSCAR  B  As
 POSCAR found :  2 types and       2 ions
 generate k-points for:   23   23   23
 POSCAR, INCAR and KPOINTS ok, starting setup
 FFT: planning ...
 WAVECAR not read
 entering main loop
       N       E                     dE             d eps       ncg     rms          rms(c)
DAV:   1     0.718758701933E+01    0.71876E+01   -0.47469E+03  8748   0.740E+02
DAV:   2    -0.118254956022E+02   -0.19013E+02   -0.18502E+02 12540   0.778E+01
DAV:   3    -0.119941204187E+02   -0.16862E+00   -0.16862E+00  9528   0.837E+00
DAV:   4    -0.119942398499E+02   -0.11943E-03   -0.11943E-03 14388   0.259E-01
DAV:   5    -0.119942398598E+02   -0.99706E-08   -0.99706E-08  9624   0.152E-03    0.389E+00
RMM:   6    -0.114386578660E+02    0.55558E+00   -0.32962E-01  8736   0.272E+00    0.164E+00
RMM:   7    -0.113821495551E+02    0.56508E-01   -0.44671E-02  8736   0.104E+00    0.735E-01
RMM:   8    -0.113757179195E+02    0.64316E-02   -0.15871E-02  8736   0.684E-01    0.822E-02
RMM:   9    -0.113761260240E+02   -0.40810E-03   -0.50844E-04  8736   0.140E-01    0.203E-02
RMM:  10    -0.113761283546E+02   -0.23306E-05   -0.11496E-05  8736   0.211E-02    0.831E-03
RMM:  11    -0.113761316413E+02   -0.32867E-05   -0.72552E-06  8736   0.154E-02    0.332E-03
RMM:  12    -0.113761309490E+02    0.69229E-06   -0.49437E-07  8453   0.337E-03    0.225E-04
RMM:  13    -0.113761309620E+02   -0.12996E-07   -0.11807E-08  5890   0.729E-04
   1 F= -.11376131E+02 E0= -.11376131E+02  d E =-.457820E-72
 Found     2 degrees of freedom:
 Adding 6 more for cell shape distortion
 Finite differences POTIM= 0.01000 DOF=   8
 generate k-points for:   23   23   23
 bond charge predicted
       N       E                     dE             d eps       ncg     rms          rms(c)
DAV:   1    -0.113705420114E+02    0.55889E-02   -0.27977E-01 27696   0.255E+00    0.275E-01
RMM:   2    -0.113680371021E+02    0.25049E-02   -0.41099E-03 22464   0.419E-01    0.144E-01
RMM:   3    -0.113672033200E+02    0.83378E-03   -0.70880E-04 22464   0.127E-01    0.455E-02
RMM:   4    -0.113671325859E+02    0.70734E-04   -0.92542E-05 22464   0.509E-02    0.753E-03
RMM:   5    -0.113671331144E+02   -0.52848E-06   -0.17218E-06 22464   0.880E-03    0.226E-03
RMM:   6    -0.113671334616E+02   -0.34723E-06   -0.21300E-07 21157   0.309E-03    0.387E-04
RMM:   7    -0.113671336089E+02   -0.14729E-06   -0.12432E-08 14484   0.785E-04    0.153E-04
RMM:   8    -0.113671336349E+02   -0.26063E-07   -0.30718E-11  8170   0.240E-04
   2 F= -.11367134E+02 E0= -.11367134E+02  d E =-.367971E-39
 Finite differences progress:
  Degree of freedom:   1/  8
  Displacement:        1/  4
  Total:               1/ 32
 generate k-points for:   23   23   23
 bond charge predicted
       N       E                     dE             d eps       ncg     rms          rms(c)
DAV:   1    -0.113744986715E+02   -0.73651E-02   -0.20804E-01 28128   0.213E+00    0.137E-01
RMM:   2    -0.113741154764E+02    0.38320E-03   -0.32478E-03 22464   0.347E-01    0.721E-02
RMM:   3    -0.113739141301E+02    0.20135E-03   -0.19210E-04 22464   0.688E-02    0.227E-02
RMM:   4    -0.113739003558E+02    0.13774E-04   -0.21958E-05 22464   0.251E-02    0.393E-03
RMM:   5    -0.113739005345E+02   -0.17874E-06   -0.38275E-07 22446   0.410E-03    0.144E-03
RMM:   6    -0.113739004519E+02    0.82655E-07   -0.70119E-08 17336   0.185E-03
   3 F= -.11373900E+02 E0= -.11373900E+02  d E =-.236594E-56
 Finite differences progress:
  Degree of freedom:   1/  8
  Displacement:        2/  4
  Total:               2/ 32
 generate k-points for:   23   23   23
 bond charge predicted
       N       E                     dE             d eps       ncg     rms          rms(c)
DAV:   1    -0.113772339394E+02   -0.33334E-02   -0.21890E-01 28884   0.230E+00    0.278E-01
RMM:   2    -0.113746137612E+02    0.26202E-02   -0.28695E-03 22464   0.347E-01    0.147E-01
RMM:   3    -0.113737660921E+02    0.84767E-03   -0.76210E-04 22464   0.132E-01    0.436E-02
RMM:   4    -0.113737107946E+02    0.55298E-04   -0.84812E-05 22464   0.491E-02    0.749E-03
RMM:   5    -0.113737113084E+02   -0.51384E-06   -0.15902E-06 22464   0.884E-03    0.165E-03
RMM:   6    -0.113737111826E+02    0.12577E-06   -0.10938E-07 18715   0.232E-03    0.383E-04
RMM:   7    -0.113737110251E+02    0.15749E-06   -0.11669E-08 14446   0.821E-04    0.863E-05
RMM:   8    -0.113737110239E+02    0.12825E-08    0.00000E+00  7163   0.181E-04
   4 F= -.11373711E+02 E0= -.11373711E+02  d E =-.136328E-31
 Finite differences progress:
  Degree of freedom:   1/  8
  Displacement:        3/  4
  Total:               3/ 32
 generate k-points for:   23   23   23
 bond charge predicted
       N       E                     dE             d eps       ncg     rms          rms(c)
DAV:   1    -0.113671635369E+02    0.65475E-02   -0.22391E-01 28212   0.218E+00    0.139E-01
RMM:   2    -0.113667698688E+02    0.39367E-03   -0.33031E-03 22464   0.351E-01    0.757E-02
RMM:   3    -0.113665422168E+02    0.22765E-03   -0.21844E-04 22464   0.728E-02    0.213E-02
RMM:   4    -0.113665298720E+02    0.12345E-04   -0.18791E-05 22464   0.233E-02    0.411E-03
RMM:   5    -0.113665301041E+02   -0.23216E-06   -0.44085E-07 22463   0.421E-03    0.166E-03
RMM:   6    -0.113665300219E+02    0.82223E-07   -0.96314E-08 18322   0.222E-03
   5 F= -.11366530E+02 E0= -.11366530E+02  d E =-.296070-110
 Finite differences progress:
  Degree of freedom:   1/  8
  Displacement:        4/  4
  Total:               4/ 32
 generate k-points for:   23   23   23
 bond charge predicted
       N       E                     dE             d eps       ncg     rms          rms(c)
DAV:   1    -0.113827072892E+02   -0.16177E-01   -0.75882E-01 27636   0.423E+00    0.520E-01
RMM:   2    -0.113715452311E+02    0.11162E-01   -0.10697E-02 22464   0.659E-01    0.263E-01
RMM:   3    -0.113677303040E+02    0.38149E-02   -0.26972E-03 22464   0.244E-01    0.811E-02
RMM:   4    -0.113672056541E+02    0.52465E-03   -0.36535E-04 22464   0.983E-02    0.113E-02
RMM:   5    -0.113671534256E+02    0.52229E-04   -0.52874E-06 22464   0.153E-02    0.322E-03
RMM:   6    -0.113671365154E+02    0.16910E-04   -0.53645E-07 22464   0.502E-03    0.672E-04
RMM:   7    -0.113671335238E+02    0.29916E-05   -0.50115E-08 16617   0.143E-03    0.198E-04
RMM:   8    -0.113671335054E+02    0.18359E-07   -0.29489E-09 13946   0.415E-04
   6 F= -.11367134E+02 E0= -.11367134E+02  d E =-.386494E-39
 Finite differences progress:
  Degree of freedom:   2/  8
  Displacement:        1/  4
  Total:               5/ 32
 generate k-points for:   23   23   23
 bond charge predicted
       N       E                     dE             d eps       ncg     rms          rms(c)
DAV:   1    -0.113745017553E+02   -0.73682E-02   -0.23566E-01 26856   0.213E+00    0.136E-01
RMM:   2    -0.113741191310E+02    0.38262E-03   -0.31415E-03 22464   0.341E-01    0.726E-02
RMM:   3    -0.113739146701E+02    0.20446E-03   -0.19072E-04 22464   0.690E-02    0.229E-02
RMM:   4    -0.113739003250E+02    0.14345E-04   -0.21909E-05 22464   0.251E-02    0.410E-03
RMM:   5    -0.113739005574E+02   -0.23241E-06   -0.47550E-07 22463   0.441E-03    0.148E-03
RMM:   6    -0.113739004523E+02    0.10510E-06   -0.75136E-08 17495   0.189E-03    0.184E-04
RMM:   7    -0.113739004025E+02    0.49857E-07   -0.42901E-09 13852   0.489E-04
   7 F= -.11373900E+02 E0= -.11373900E+02  d E =-.232653E-56
 Finite differences progress:
  Degree of freedom:   2/  8
  Displacement:        2/  4
  Total:               6/ 32
 generate k-points for:   23   23   23
 bond charge predicted
       N       E                     dE             d eps       ncg     rms          rms(c)
DAV:   1    -0.113772241711E+02   -0.33237E-02   -0.23765E-01 29184   0.231E+00    0.278E-01
RMM:   2    -0.113746171792E+02    0.26070E-02   -0.29397E-03 22464   0.351E-01    0.147E-01
RMM:   3    -0.113737667533E+02    0.85043E-03   -0.76106E-04 22464   0.132E-01    0.437E-02
RMM:   4    -0.113737107884E+02    0.55965E-04   -0.84708E-05 22464   0.490E-02    0.753E-03
RMM:   5    -0.113737113276E+02   -0.53912E-06   -0.16305E-06 22464   0.888E-03    0.175E-03
RMM:   6    -0.113737111830E+02    0.14454E-06   -0.12099E-07 18970   0.241E-03    0.382E-04
RMM:   7    -0.113737110270E+02    0.15601E-06   -0.11992E-08 14477   0.828E-04    0.976E-05
RMM:   8    -0.113737110235E+02    0.34904E-08   -0.78394E-13  7239   0.188E-04
   8 F= -.11373711E+02 E0= -.11373711E+02  d E =-.136317E-31
 Finite differences progress:
  Degree of freedom:   2/  8
  Displacement:        3/  4
  Total:               7/ 32
 generate k-points for:   23   23   23
 bond charge predicted
       N       E                     dE             d eps       ncg     rms          rms(c)
DAV:   1    -0.113671815632E+02    0.65295E-02   -0.21794E-01 27960   0.217E+00    0.140E-01
RMM:   2    -0.113667671410E+02    0.41442E-03   -0.31619E-03 22464   0.344E-01    0.753E-02
RMM:   3    -0.113665417310E+02    0.22541E-03   -0.21986E-04 22464   0.728E-02    0.211E-02
RMM:   4    -0.113665298869E+02    0.11844E-04   -0.18674E-05 22464   0.232E-02    0.399E-03
RMM:   5    -0.113665300775E+02   -0.19063E-06   -0.34657E-07 22373   0.381E-03    0.180E-03
RMM:   6    -0.113665300166E+02    0.60910E-07   -0.10912E-07 18692   0.239E-03
   9 F= -.11366530E+02 E0= -.11366530E+02  d E =-.297605-110
 Finite differences progress:
  Degree of freedom:   2/  8
  Displacement:        4/  4
  Total:               8/ 32
 generate k-points for:   23   23   23
 bond charge predicted
       N       E                     dE             d eps       ncg     rms          rms(c)
DAV:   1    -0.113816966645E+02   -0.15167E-01   -0.82951E-01 28152   0.424E+00    0.519E-01
RMM:   2    -0.113709230635E+02    0.10774E-01   -0.11120E-02 22464   0.671E-01    0.264E-01
RMM:   3    -0.113674640305E+02    0.34590E-02   -0.27150E-03 22464   0.245E-01    0.814E-02
RMM:   4    -0.113671350786E+02    0.32895E-03   -0.36736E-04 22464   0.986E-02    0.114E-02
RMM:   5    -0.113671328663E+02    0.22123E-05   -0.56380E-06 22464   0.156E-02    0.329E-03
RMM:   6    -0.113671332577E+02   -0.39140E-06   -0.53505E-07 22464   0.498E-03    0.668E-04
RMM:   7    -0.113671336062E+02   -0.34857E-06   -0.49933E-08 16745   0.143E-03    0.213E-04
RMM:   8    -0.113671336554E+02   -0.49198E-07   -0.30903E-09 14008   0.419E-04
  10 F= -.11367134E+02 E0= -.11367134E+02  d E =-.293428E-62
 Finite differences progress:
  Degree of freedom:   3/  8
  Displacement:        1/  4
  Total:               9/ 32
 generate k-points for:   23   23   23
 bond charge predicted
       N       E                     dE             d eps       ncg     rms          rms(c)
DAV:   1    -0.113744535483E+02   -0.73199E-02   -0.21528E-01 25308   0.221E+00    0.138E-01
RMM:   2    -0.113741118311E+02    0.34172E-03   -0.37505E-03 22464   0.368E-01    0.717E-02
RMM:   3    -0.113739141622E+02    0.19767E-03   -0.19738E-04 22464   0.707E-02    0.228E-02
RMM:   4    -0.113739003911E+02    0.13771E-04   -0.23194E-05 22464   0.259E-02    0.382E-03
RMM:   5    -0.113739005055E+02   -0.11439E-06   -0.29809E-07 21219   0.372E-03    0.166E-03
RMM:   6    -0.113739004473E+02    0.58217E-07   -0.87226E-08 17952   0.211E-03
  11 F= -.11373900E+02 E0= -.11373900E+02  d E =-.173420E-56
 Finite differences progress:
  Degree of freedom:   3/  8
  Displacement:        2/  4
  Total:              10/ 32
 generate k-points for:   23   23   23
 bond charge predicted
       N       E                     dE             d eps       ncg     rms          rms(c)
DAV:   1    -0.113772644775E+02   -0.33640E-02   -0.18942E-01 28236   0.222E+00    0.279E-01
RMM:   2    -0.113746100047E+02    0.26545E-02   -0.26305E-03 22464   0.327E-01    0.146E-01
RMM:   3    -0.113737661011E+02    0.84390E-03   -0.76157E-04 22464   0.132E-01    0.436E-02
RMM:   4    -0.113737108217E+02    0.55279E-04   -0.86208E-05 22464   0.495E-02    0.741E-03
RMM:   5    -0.113737112863E+02   -0.46461E-06   -0.15804E-06 22464   0.893E-03    0.141E-03
RMM:   6    -0.113737111831E+02    0.10321E-06   -0.83201E-08 18146   0.205E-03    0.387E-04
RMM:   7    -0.113737110205E+02    0.16260E-06   -0.11478E-08 14393   0.808E-04    0.720E-05
RMM:   8    -0.113737110238E+02   -0.33366E-08    0.00000E+00  7108   0.171E-04
  12 F= -.11373711E+02 E0= -.11373711E+02  d E =-.136513E-31
 Finite differences progress:
  Degree of freedom:   3/  8
  Displacement:        3/  4
  Total:              11/ 32
 generate k-points for:   23   23   23
 bond charge predicted
       N       E                     dE             d eps       ncg     rms          rms(c)
DAV:   1    -0.113671111342E+02    0.65999E-02   -0.25874E-01 26796   0.231E+00    0.139E-01
RMM:   2    -0.113667727150E+02    0.33842E-03   -0.37595E-03 22464   0.379E-01    0.760E-02
RMM:   3    -0.113665418668E+02    0.23085E-03   -0.22259E-04 22464   0.738E-02    0.211E-02
RMM:   4    -0.113665298498E+02    0.12017E-04   -0.17667E-05 22464   0.226E-02    0.426E-03
RMM:   5    -0.113665301037E+02   -0.25390E-06   -0.50068E-07 22464   0.440E-03    0.169E-03
RMM:   6    -0.113665300232E+02    0.80557E-07   -0.98316E-08 18369   0.225E-03
  13 F= -.11366530E+02 E0= -.11366530E+02  d E =-.430989-110
 Finite differences progress:
  Degree of freedom:   3/  8
  Displacement:        4/  4
  Total:              12/ 32
 generate k-points for:   23   23   23
 bond charge predicted
       N       E                     dE             d eps       ncg     rms          rms(c)
DAV:   1    -0.113789995095E+02   -0.12469E-01   -0.55661E-01 95316   0.359E+00    0.415E-01
RMM:   2    -0.113730644226E+02    0.59351E-02   -0.12592E-02 76320   0.706E-01    0.225E-01
RMM:   3    -0.113705885590E+02    0.24759E-02   -0.27760E-03 76320   0.249E-01    0.464E-02
RMM:   4    -0.113705294286E+02    0.59130E-04   -0.95528E-05 76320   0.518E-02    0.134E-02
RMM:   5    -0.113705285656E+02    0.86300E-06   -0.47183E-06 76320   0.132E-02    0.357E-03
RMM:   6    -0.113705289615E+02   -0.39594E-06   -0.52856E-07 76320   0.441E-03    0.967E-04
RMM:   7    -0.113705291852E+02   -0.22370E-06   -0.77052E-08 60127   0.169E-03    0.346E-04
RMM:   8    -0.113705291927E+02   -0.74560E-08   -0.48845E-09 47810   0.398E-04
  14 F= -.11370529E+02 E0= -.11370529E+02  d E =-.207552E-96
 Finite differences progress:
  Degree of freedom:   4/  8
  Displacement:        1/  4
  Total:              13/ 32
 generate k-points for:   23   23   23
 bond charge predicted
       N       E                     dE             d eps       ncg     rms          rms(c)
DAV:   1    -0.113757589677E+02   -0.52298E-02   -0.25772E-01104244   0.221E+00    0.157E-01
RMM:   2    -0.113750992042E+02    0.65976E-03   -0.40046E-03 76320   0.401E-01    0.832E-02
RMM:   3    -0.113747317802E+02    0.36742E-03   -0.54017E-04 76320   0.111E-01    0.114E-02
RMM:   4    -0.113747302300E+02    0.15502E-05   -0.54642E-06 76320   0.145E-02    0.191E-03
RMM:   5    -0.113747302753E+02   -0.45229E-07   -0.14579E-07 64706   0.231E-03
  15 F= -.11374730E+02 E0= -.11374730E+02  d E =-.263804E-84
 Finite differences progress:
  Degree of freedom:   4/  8
  Displacement:        2/  4
  Total:              14/ 32
 generate k-points for:   23   23   23
 bond charge predicted
       N       E                     dE             d eps       ncg     rms          rms(c)
DAV:   1    -0.113799491984E+02   -0.52190E-02   -0.16883E-01101100   0.177E+00    0.308E-01
RMM:   2    -0.113762559367E+02    0.36933E-02   -0.41544E-03 76320   0.383E-01    0.168E-01
RMM:   3    -0.113747379270E+02    0.15180E-02   -0.21760E-03 76320   0.216E-01    0.219E-02
RMM:   4    -0.113747301563E+02    0.77707E-05   -0.11959E-05 76320   0.226E-02    0.645E-03
RMM:   5    -0.113747301924E+02   -0.36074E-07   -0.14527E-06 76320   0.701E-03    0.149E-03
RMM:   6    -0.113747303198E+02   -0.12740E-06   -0.11896E-07 64705   0.211E-03    0.351E-04
RMM:   7    -0.113747303233E+02   -0.35094E-08   -0.11591E-08 48980   0.649E-04
  16 F= -.11374730E+02 E0= -.11374730E+02  d E =-.301450E-84
 Finite differences progress:
  Degree of freedom:   4/  8
  Displacement:        3/  4
  Total:              15/ 32
 generate k-points for:   23   23   23
 bond charge predicted
       N       E                     dE             d eps       ncg     rms          rms(c)
DAV:   1    -0.113714502200E+02    0.32801E-02   -0.29619E-01109836   0.241E+00    0.152E-01
RMM:   2    -0.113709208798E+02    0.52934E-03   -0.47000E-03 76320   0.438E-01    0.853E-02
RMM:   3    -0.113705313345E+02    0.38955E-03   -0.57037E-04 76320   0.113E-01    0.107E-02
RMM:   4    -0.113705294641E+02    0.18704E-05   -0.24487E-06 76320   0.106E-02    0.514E-03
RMM:   5    -0.113705291787E+02    0.28536E-06   -0.74135E-07 76320   0.497E-03    0.699E-04
RMM:   6    -0.113705292094E+02   -0.30683E-07   -0.32034E-08 50563   0.106E-03
  17 F= -.11370529E+02 E0= -.11370529E+02  d E =-.241732E-96
 Finite differences progress:
  Degree of freedom:   4/  8
  Displacement:        4/  4
  Total:              16/ 32
 generate k-points for:   23   23   23
 bond charge predicted
       N       E                     dE             d eps       ncg     rms          rms(c)
DAV:   1    -0.113841827923E+02   -0.13654E-01   -0.59479E-01103848   0.326E+00    0.389E-01
RMM:   2    -0.113768117857E+02    0.73710E-02   -0.10892E-02 76320   0.637E-01    0.229E-01
RMM:   3    -0.113711129766E+02    0.56988E-02   -0.45928E-03 76320   0.314E-01    0.383E-02
RMM:   4    -0.113706941018E+02    0.41887E-03   -0.12089E-04 76320   0.554E-02    0.102E-02
RMM:   5    -0.113705398816E+02    0.15422E-03   -0.18637E-05 76320   0.208E-02    0.297E-03
RMM:   6    -0.113705286000E+02    0.11282E-04   -0.67634E-07 76320   0.437E-03    0.355E-04
RMM:   7    -0.113705288864E+02   -0.28633E-06   -0.16082E-08 52098   0.734E-04    0.145E-04
RMM:   8    -0.113705290738E+02   -0.18739E-06   -0.29014E-10 31422   0.270E-04    0.325E-05
RMM:   9    -0.113705291818E+02   -0.10802E-06   -0.60628E-10 27591   0.265E-04    0.160E-05
RMM:  10    -0.113705291895E+02   -0.77754E-08   -0.66315E-12 17172   0.206E-04
  18 F= -.11370529E+02 E0= -.11370529E+02  d E =-.206729E-96
 Finite differences progress:
  Degree of freedom:   5/  8
  Displacement:        1/  4
  Total:              17/ 32
 generate k-points for:   23   23   23
 bond charge predicted
       N       E                     dE             d eps       ncg     rms          rms(c)
DAV:   1    -0.113758132879E+02   -0.52841E-02   -0.22464E-01112608   0.216E+00    0.157E-01
RMM:   2    -0.113751002589E+02    0.71303E-03   -0.34675E-03 76320   0.375E-01    0.831E-02
RMM:   3    -0.113747318817E+02    0.36838E-03   -0.53598E-04 76320   0.110E-01    0.114E-02
RMM:   4    -0.113747302614E+02    0.16203E-05   -0.55838E-06 76320   0.145E-02    0.200E-03
RMM:   5    -0.113747302777E+02   -0.16277E-07   -0.17088E-07 68803   0.242E-03
  19 F= -.11374730E+02 E0= -.11374730E+02  d E =-.257180E-84
 Finite differences progress:
  Degree of freedom:   5/  8
  Displacement:        2/  4
  Total:              18/ 32
 generate k-points for:   23   23   23
 bond charge predicted
       N       E                     dE             d eps       ncg     rms          rms(c)
DAV:   1    -0.113799754435E+02   -0.52452E-02   -0.15944E-01109692   0.175E+00    0.308E-01
RMM:   2    -0.113762561288E+02    0.37193E-02   -0.38970E-03 76320   0.371E-01    0.168E-01
RMM:   3    -0.113747380714E+02    0.15181E-02   -0.21845E-03 76320   0.217E-01    0.220E-02
RMM:   4    -0.113747301767E+02    0.78948E-05   -0.12132E-05 76320   0.228E-02    0.636E-03
RMM:   5    -0.113747301921E+02   -0.15461E-07   -0.14442E-06 76320   0.696E-03    0.150E-03
RMM:   6    -0.113747303179E+02   -0.12576E-06   -0.11769E-07 64614   0.210E-03    0.347E-04
RMM:   7    -0.113747303203E+02   -0.23970E-08   -0.11442E-08 48993   0.646E-04
  20 F= -.11374730E+02 E0= -.11374730E+02  d E =-.298699E-84
 Finite differences progress:
  Degree of freedom:   5/  8
  Displacement:        3/  4
  Total:              19/ 32
 generate k-points for:   23   23   23
 bond charge predicted
       N       E                     dE             d eps       ncg     rms          rms(c)
DAV:   1    -0.113714583993E+02    0.32719E-02   -0.28883E-01110484   0.240E+00    0.151E-01
RMM:   2    -0.113709216756E+02    0.53672E-03   -0.46075E-03 76320   0.432E-01    0.854E-02
RMM:   3    -0.113705313179E+02    0.39036E-03   -0.57284E-04 76320   0.113E-01    0.107E-02
RMM:   4    -0.113705294381E+02    0.18798E-05   -0.24436E-06 76320   0.106E-02    0.517E-03
RMM:   5    -0.113705291768E+02    0.26132E-06   -0.74395E-07 76320   0.498E-03    0.697E-04
RMM:   6    -0.113705292067E+02   -0.29901E-07   -0.33598E-08 50794   0.109E-03
  21 F= -.11370529E+02 E0= -.11370529E+02  d E =-.240891E-96
 Finite differences progress:
  Degree of freedom:   5/  8
  Displacement:        4/  4
  Total:              20/ 32
 generate k-points for:   23   23   23
 bond charge predicted
       N       E                     dE             d eps       ncg     rms          rms(c)
DAV:   1    -0.113803621824E+02   -0.98330E-02   -0.51732E-01105972   0.316E+00    0.386E-01
RMM:   2    -0.113743857431E+02    0.59764E-02   -0.10066E-02 76320   0.612E-01    0.229E-01
RMM:   3    -0.113706412907E+02    0.37445E-02   -0.45024E-03 76320   0.316E-01    0.366E-02
RMM:   4    -0.113705413358E+02    0.99955E-04   -0.10426E-04 76320   0.520E-02    0.106E-02
RMM:   5    -0.113705301929E+02    0.11143E-04   -0.19419E-05 76320   0.212E-02    0.285E-03
RMM:   6    -0.113705294177E+02    0.77529E-06   -0.64282E-07 76320   0.424E-03    0.386E-04
RMM:   7    -0.113705292938E+02    0.12382E-06   -0.16939E-08 51818   0.736E-04    0.141E-04
RMM:   8    -0.113705292258E+02    0.68050E-07   -0.14666E-10 29784   0.267E-04
  22 F= -.11370529E+02 E0= -.11370529E+02  d E =-.200715E-96
 Finite differences progress:
  Degree of freedom:   6/  8
  Displacement:        1/  4
  Total:              21/ 32
 generate k-points for:   23   23   23
 bond charge predicted
       N       E                     dE             d eps       ncg     rms          rms(c)
DAV:   1    -0.113758283099E+02   -0.52990E-02   -0.20989E-01116532   0.216E+00    0.157E-01
RMM:   2    -0.113750990361E+02    0.72927E-03   -0.33338E-03 76320   0.368E-01    0.829E-02
RMM:   3    -0.113747317291E+02    0.36731E-03   -0.53456E-04 76320   0.110E-01    0.114E-02
RMM:   4    -0.113747303241E+02    0.14050E-05   -0.63552E-06 76320   0.152E-02    0.197E-03
RMM:   5    -0.113747302769E+02    0.47223E-07   -0.14068E-07 65177   0.217E-03
  23 F= -.11374730E+02 E0= -.11374730E+02  d E =-.242213E-84
 Finite differences progress:
  Degree of freedom:   6/  8
  Displacement:        2/  4
  Total:              22/ 32
 generate k-points for:   23   23   23
 bond charge predicted
       N       E                     dE             d eps       ncg     rms          rms(c)
DAV:   1    -0.113799951639E+02   -0.52648E-02   -0.15210E-01112380   0.173E+00    0.308E-01
RMM:   2    -0.113762559133E+02    0.37393E-02   -0.37285E-03 76320   0.363E-01    0.169E-01
RMM:   3    -0.113747381138E+02    0.15178E-02   -0.21866E-03 76320   0.217E-01    0.220E-02
RMM:   4    -0.113747301704E+02    0.79434E-05   -0.12241E-05 76320   0.229E-02    0.625E-03
RMM:   5    -0.113747301924E+02   -0.22079E-07   -0.14294E-06 76320   0.691E-03    0.150E-03
RMM:   6    -0.113747303177E+02   -0.12522E-06   -0.11575E-07 64476   0.208E-03    0.344E-04
RMM:   7    -0.113747303206E+02   -0.29495E-08   -0.11149E-08 49064   0.640E-04
  24 F= -.11374730E+02 E0= -.11374730E+02  d E =-.299431E-84
 Finite differences progress:
  Degree of freedom:   6/  8
  Displacement:        3/  4
  Total:              23/ 32
 generate k-points for:   23   23   23
 bond charge predicted
       N       E                     dE             d eps       ncg     rms          rms(c)
DAV:   1    -0.113714588736E+02    0.32714E-02   -0.28897E-01111396   0.242E+00    0.151E-01
RMM:   2    -0.113709230958E+02    0.53578E-03   -0.45838E-03 76320   0.434E-01    0.856E-02
RMM:   3    -0.113705315021E+02    0.39159E-03   -0.57533E-04 76320   0.113E-01    0.108E-02
RMM:   4    -0.113705294812E+02    0.20209E-05   -0.23965E-06 76320   0.105E-02    0.523E-03
RMM:   5    -0.113705291767E+02    0.30445E-06   -0.75223E-07 76320   0.501E-03    0.697E-04
RMM:   6    -0.113705292069E+02   -0.30171E-07   -0.32246E-08 50761   0.106E-03
  25 F= -.11370529E+02 E0= -.11370529E+02  d E =-.240031E-96
 Finite differences progress:
  Degree of freedom:   6/  8
  Displacement:        4/  4
  Total:              24/ 32
 generate k-points for:   23   23   23
 bond charge predicted
       N       E                     dE             d eps       ncg     rms          rms(c)
DAV:   1    -0.113791021188E+02   -0.85729E-02   -0.53596E-01 53340   0.394E+00    0.255E-01
RMM:   2    -0.113759833550E+02    0.31188E-02   -0.58106E-03 41472   0.480E-01    0.162E-01
RMM:   3    -0.113729965405E+02    0.29868E-02   -0.30782E-03 41472   0.259E-01    0.203E-02
RMM:   4    -0.113729391329E+02    0.57408E-04   -0.47491E-05 41472   0.364E-02    0.389E-03
RMM:   5    -0.113729246504E+02    0.14482E-04   -0.29964E-06 41472   0.875E-03    0.194E-03
RMM:   6    -0.113729234001E+02    0.12503E-05   -0.15615E-07 36436   0.236E-03    0.138E-04
RMM:   7    -0.113729233473E+02    0.52778E-07   -0.52201E-09 24255   0.499E-04
  26 F= -.11372923E+02 E0= -.11372923E+02  d E =-.965569E-63
 Finite differences progress:
  Degree of freedom:   7/  8
  Displacement:        1/  4
  Total:              25/ 32
 generate k-points for:   23   23   23
 bond charge predicted
       N       E                     dE             d eps       ncg     rms          rms(c)
DAV:   1    -0.113751943795E+02   -0.22710E-02   -0.39080E-01 41652   0.344E+00    0.453E-02
RMM:   2    -0.113753413864E+02   -0.14701E-03   -0.20149E-03 41472   0.296E-01    0.223E-02
RMM:   3    -0.113753286186E+02    0.12768E-04   -0.28856E-05 41472   0.296E-02    0.417E-03
RMM:   4    -0.113753289025E+02   -0.28390E-06   -0.54939E-07 41472   0.484E-03    0.159E-03
RMM:   5    -0.113753289280E+02   -0.25504E-07   -0.63592E-08 29253   0.182E-03
  27 F= -.11375329E+02 E0= -.11375329E+02  d E =-.204865E-20
 Finite differences progress:
  Degree of freedom:   7/  8
  Displacement:        2/  4
  Total:              26/ 32
 generate k-points for:   23   23   23
 bond charge predicted
       N       E                     dE             d eps       ncg     rms          rms(c)
DAV:   1    -0.113754827409E+02   -0.15384E-03   -0.17733E-01 43764   0.214E+00    0.836E-02
RMM:   2    -0.113753855850E+02    0.97156E-04   -0.98218E-04 41472   0.195E-01    0.470E-02
RMM:   3    -0.113753285254E+02    0.57060E-04   -0.10097E-04 41472   0.505E-02    0.710E-03
RMM:   4    -0.113753286957E+02   -0.17031E-06   -0.64028E-07 41472   0.586E-03    0.353E-03
RMM:   5    -0.113753289285E+02   -0.23282E-06   -0.21459E-07 41195   0.360E-03    0.312E-04
RMM:   6    -0.113753289270E+02    0.15727E-08   -0.64067E-09 26417   0.500E-04
  28 F= -.11375329E+02 E0= -.11375329E+02  d E =-.215807E-20
 Finite differences progress:
  Degree of freedom:   7/  8
  Displacement:        3/  4
  Total:              27/ 32
 generate k-points for:   23   23   23
 bond charge predicted
       N       E                     dE             d eps       ncg     rms          rms(c)
DAV:   1    -0.113727780298E+02    0.25509E-02   -0.39830E-01 41736   0.345E+00    0.395E-02
RMM:   2    -0.113729388784E+02   -0.16085E-03   -0.20496E-03 41472   0.298E-01    0.247E-02
RMM:   3    -0.113729232667E+02    0.15612E-04   -0.31407E-05 41472   0.305E-02    0.400E-03
RMM:   4    -0.113729232584E+02    0.83020E-08   -0.18582E-07 35649   0.306E-03    0.259E-03
RMM:   5    -0.113729233427E+02   -0.84240E-07   -0.10669E-07 29559   0.263E-03
  29 F= -.11372923E+02 E0= -.11372923E+02  d E =-.926716E-63
 Finite differences progress:
  Degree of freedom:   7/  8
  Displacement:        4/  4
  Total:              28/ 32
 generate k-points for:   23   23   23
 bond charge predicted
       N       E                     dE             d eps       ncg     rms          rms(c)
DAV:   1    -0.113727704679E+02    0.15279E-03   -0.53242E-01 41568   0.388E+00    0.127E-01
RMM:   2    -0.113730020413E+02   -0.23157E-03   -0.51209E-03 41472   0.487E-01    0.718E-02
RMM:   3    -0.113729221271E+02    0.79914E-04   -0.17716E-04 41472   0.748E-02    0.127E-02
RMM:   4    -0.113729231514E+02   -0.10243E-05   -0.25669E-06 41472   0.109E-02    0.577E-03
RMM:   5    -0.113729233019E+02   -0.15051E-06   -0.67228E-07 41472   0.546E-03    0.542E-04
RMM:   6    -0.113729233080E+02   -0.61332E-08   -0.81672E-09 27175   0.665E-04
  30 F= -.11372923E+02 E0= -.11372923E+02  d E =-.914110E-63
 Finite differences progress:
  Degree of freedom:   8/  8
  Displacement:        1/  4
  Total:              29/ 32
 generate k-points for:   23   23   23
 bond charge predicted
       N       E                     dE             d eps       ncg     rms          rms(c)
DAV:   1    -0.113749648283E+02   -0.20415E-02   -0.25025E-01 41892   0.215E+00    0.439E-02
RMM:   2    -0.113753333274E+02   -0.36850E-03   -0.37457E-03 41472   0.407E-01    0.268E-02
RMM:   3    -0.113753287885E+02    0.45389E-05   -0.23463E-05 41472   0.329E-02    0.268E-03
RMM:   4    -0.113753288860E+02   -0.97450E-07   -0.42636E-07 38732   0.450E-03    0.892E-04
RMM:   5    -0.113753289002E+02   -0.14284E-07   -0.25549E-08 27878   0.109E-03
  31 F= -.11375329E+02 E0= -.11375329E+02  d E =-.214510E-20
 Finite differences progress:
  Degree of freedom:   8/  8
  Displacement:        2/  4
  Total:              30/ 32
 generate k-points for:   23   23   23
 bond charge predicted
       N       E                     dE             d eps       ncg     rms          rms(c)
DAV:   1    -0.113752289052E+02    0.99981E-04   -0.10578E-01 47028   0.130E+00    0.875E-02
RMM:   2    -0.113753421722E+02   -0.11327E-03   -0.15472E-03 41472   0.245E-01    0.527E-02
RMM:   3    -0.113753284869E+02    0.13685E-04   -0.30976E-05 41472   0.374E-02    0.434E-03
RMM:   4    -0.113753288483E+02   -0.36139E-06   -0.69900E-07 41449   0.546E-03    0.162E-03
RMM:   5    -0.113753289025E+02   -0.54270E-07   -0.10223E-07 33310   0.209E-03
  32 F= -.11375329E+02 E0= -.11375329E+02  d E =-.210099E-20
 Finite differences progress:
  Degree of freedom:   8/  8
  Displacement:        3/  4
  Total:              31/ 32
 generate k-points for:   23   23   23
 bond charge predicted
       N       E                     dE             d eps       ncg     rms          rms(c)
DAV:   1    -0.113725635585E+02    0.27653E-02   -0.24931E-01 43224   0.213E+00    0.454E-02
RMM:   2    -0.113729245640E+02   -0.36101E-03   -0.37639E-03 41472   0.403E-01    0.263E-02
RMM:   3    -0.113729231976E+02    0.13663E-05   -0.25304E-05 41472   0.335E-02    0.104E-02
RMM:   4    -0.113729233002E+02   -0.10262E-06   -0.14528E-06 41472   0.834E-03    0.893E-04
RMM:   5    -0.113729233038E+02   -0.36038E-08   -0.19145E-08 27592   0.895E-04
  33 F= -.11372923E+02 E0= -.11372923E+02  d E =-.103537E-62
 Finite differences progress:
  Degree of freedom:   8/  8
  Displacement:        4/  4
  Total:              32/ 32
 generate k-points for:   23   23   23
