unknown system                          
           1
     0.000000    2.408819    2.408819
     2.408819    0.000000    2.408819
     2.408819    2.408819    0.000000
   B    As
   1   1
Direct configuration=     1
   0.75000000  0.75000000  0.75000000
   0.00000000  0.00000000  0.00000000
unknown system                          
           1
     0.000000    2.408819    2.408819
     2.456995    0.000000    2.408819
     2.456995    2.408819    0.000000
   B    As
   1   1
Direct configuration=     2
   0.75000000  0.75000000  0.75000000
   0.00000000  0.00000000  0.00000000
unknown system                          
           1
     0.000000    2.408819    2.408819
     2.432907    0.000000    2.408819
     2.432907    2.408819    0.000000
   B    As
   1   1
Direct configuration=     3
   0.75000000  0.75000000  0.75000000
   0.00000000  0.00000000  0.00000000
unknown system                          
           1
     0.000000    2.408819    2.408819
     2.384731    0.000000    2.408819
     2.384731    2.408819    0.000000
   B    As
   1   1
Direct configuration=     4
   0.75000000  0.75000000  0.75000000
   0.00000000  0.00000000  0.00000000
unknown system                          
           1
     0.000000    2.408819    2.408819
     2.360643    0.000000    2.408819
     2.360643    2.408819    0.000000
   B    As
   1   1
Direct configuration=     5
   0.75000000  0.75000000  0.75000000
   0.00000000  0.00000000  0.00000000
unknown system                          
           1
     0.000000    2.456995    2.408819
     2.408819    0.000000    2.408819
     2.408819    2.456995    0.000000
   B    As
   1   1
Direct configuration=     6
   0.75000000  0.75000000  0.75000000
   0.00000000  0.00000000  0.00000000
unknown system                          
           1
     0.000000    2.432907    2.408819
     2.408819    0.000000    2.408819
     2.408819    2.432907    0.000000
   B    As
   1   1
Direct configuration=     7
   0.75000000  0.75000000  0.75000000
   0.00000000  0.00000000  0.00000000
unknown system                          
           1
     0.000000    2.384731    2.408819
     2.408819    0.000000    2.408819
     2.408819    2.384731    0.000000
   B    As
   1   1
Direct configuration=     8
   0.75000000  0.75000000  0.75000000
   0.00000000  0.00000000  0.00000000
unknown system                          
           1
     0.000000    2.360643    2.408819
     2.408819    0.000000    2.408819
     2.408819    2.360643    0.000000
   B    As
   1   1
Direct configuration=     9
   0.75000000  0.75000000  0.75000000
   0.00000000  0.00000000  0.00000000
unknown system                          
           1
     0.000000    2.408819    2.456995
     2.408819    0.000000    2.456995
     2.408819    2.408819    0.000000
   B    As
   1   1
Direct configuration=    10
   0.75000000  0.75000000  0.75000000
   0.00000000  0.00000000  0.00000000
unknown system                          
           1
     0.000000    2.408819    2.432907
     2.408819    0.000000    2.432907
     2.408819    2.408819    0.000000
   B    As
   1   1
Direct configuration=    11
   0.75000000  0.75000000  0.75000000
   0.00000000  0.00000000  0.00000000
unknown system                          
           1
     0.000000    2.408819    2.384731
     2.408819    0.000000    2.384731
     2.408819    2.408819    0.000000
   B    As
   1   1
Direct configuration=    12
   0.75000000  0.75000000  0.75000000
   0.00000000  0.00000000  0.00000000
unknown system                          
           1
     0.000000    2.408819    2.360643
     2.408819    0.000000    2.360643
     2.408819    2.408819    0.000000
   B    As
   1   1
Direct configuration=    13
   0.75000000  0.75000000  0.75000000
   0.00000000  0.00000000  0.00000000
unknown system                          
           1
     0.000000    2.408819    2.408819
     2.408819    0.048176    2.408819
     2.408819    2.456995    0.000000
   B    As
   1   1
Direct configuration=    14
   0.75000000  0.75000000  0.75000000
   0.00000000  0.00000000  0.00000000
unknown system                          
           1
     0.000000    2.408819    2.408819
     2.408819    0.024088    2.408819
     2.408819    2.432907    0.000000
   B    As
   1   1
Direct configuration=    15
   0.75000000  0.75000000  0.75000000
   0.00000000  0.00000000  0.00000000
unknown system                          
           1
     0.000000    2.408819    2.408819
     2.408819   -0.024088    2.408819
     2.408819    2.384731    0.000000
   B    As
   1   1
Direct configuration=    16
   0.75000000  0.75000000  0.75000000
   0.00000000  0.00000000  0.00000000
unknown system                          
           1
     0.000000    2.408819    2.408819
     2.408819   -0.048176    2.408819
     2.408819    2.360643    0.000000
   B    As
   1   1
Direct configuration=    17
   0.75000000  0.75000000  0.75000000
   0.00000000  0.00000000  0.00000000
unknown system                          
           1
     0.000000    2.408819    2.456995
     2.408819    0.000000    2.408819
     2.408819    2.408819    0.048176
   B    As
   1   1
Direct configuration=    18
   0.75000000  0.75000000  0.75000000
   0.00000000  0.00000000  0.00000000
unknown system                          
           1
     0.000000    2.408819    2.432907
     2.408819    0.000000    2.408819
     2.408819    2.408819    0.024088
   B    As
   1   1
Direct configuration=    19
   0.75000000  0.75000000  0.75000000
   0.00000000  0.00000000  0.00000000
unknown system                          
           1
     0.000000    2.408819    2.384731
     2.408819    0.000000    2.408819
     2.408819    2.408819   -0.024088
   B    As
   1   1
Direct configuration=    20
   0.75000000  0.75000000  0.75000000
   0.00000000  0.00000000  0.00000000
unknown system                          
           1
     0.000000    2.408819    2.360643
     2.408819    0.000000    2.408819
     2.408819    2.408819   -0.048176
   B    As
   1   1
Direct configuration=    21
   0.75000000  0.75000000  0.75000000
   0.00000000  0.00000000  0.00000000
unknown system                          
           1
     0.048176    2.408819    2.408819
     2.456995    0.000000    2.408819
     2.408819    2.408819    0.000000
   B    As
   1   1
Direct configuration=    22
   0.75000000  0.75000000  0.75000000
   0.00000000  0.00000000  0.00000000
unknown system                          
           1
     0.024088    2.408819    2.408819
     2.432907    0.000000    2.408819
     2.408819    2.408819    0.000000
   B    As
   1   1
Direct configuration=    23
   0.75000000  0.75000000  0.75000000
   0.00000000  0.00000000  0.00000000
unknown system                          
           1
    -0.024088    2.408819    2.408819
     2.384731    0.000000    2.408819
     2.408819    2.408819    0.000000
   B    As
   1   1
Direct configuration=    24
   0.75000000  0.75000000  0.75000000
   0.00000000  0.00000000  0.00000000
unknown system                          
           1
    -0.048176    2.408819    2.408819
     2.360643    0.000000    2.408819
     2.408819    2.408819    0.000000
   B    As
   1   1
Direct configuration=    25
   0.75000000  0.75000000  0.75000000
   0.00000000  0.00000000  0.00000000
unknown system                          
           1
     0.000000    2.408819    2.408819
     2.408819    0.000000    2.408819
     2.408819    2.408819    0.000000
   B    As
   1   1
Direct configuration=    26
   0.74584859  0.75415141  0.75415141
   0.00000000  0.00000000  0.00000000
unknown system                          
           1
     0.000000    2.408819    2.408819
     2.408819    0.000000    2.408819
     2.408819    2.408819    0.000000
   B    As
   1   1
Direct configuration=    27
   0.74792429  0.75207571  0.75207571
   0.00000000  0.00000000  0.00000000
unknown system                          
           1
     0.000000    2.408819    2.408819
     2.408819    0.000000    2.408819
     2.408819    2.408819    0.000000
   B    As
   1   1
Direct configuration=    28
   0.75207571  0.74792429  0.74792429
   0.00000000  0.00000000  0.00000000
unknown system                          
           1
     0.000000    2.408819    2.408819
     2.408819    0.000000    2.408819
     2.408819    2.408819    0.000000
   B    As
   1   1
Direct configuration=    29
   0.75415141  0.74584859  0.74584859
   0.00000000  0.00000000  0.00000000
unknown system                          
           1
     0.000000    2.408819    2.408819
     2.408819    0.000000    2.408819
     2.408819    2.408819    0.000000
   B    As
   1   1
Direct configuration=    30
   0.75000000  0.75000000  0.75000000
  -0.00415141  0.00415141  0.00415141
unknown system                          
           1
     0.000000    2.408819    2.408819
     2.408819    0.000000    2.408819
     2.408819    2.408819    0.000000
   B    As
   1   1
Direct configuration=    31
   0.75000000  0.75000000  0.75000000
  -0.00207571  0.00207571  0.00207571
unknown system                          
           1
     0.000000    2.408819    2.408819
     2.408819    0.000000    2.408819
     2.408819    2.408819    0.000000
   B    As
   1   1
Direct configuration=    32
   0.75000000  0.75000000  0.75000000
   0.00207571 -0.00207571 -0.00207571
unknown system                          
           1
     0.000000    2.408819    2.408819
     2.408819    0.000000    2.408819
     2.408819    2.408819    0.000000
   B    As
   1   1
Direct configuration=    33
   0.75000000  0.75000000  0.75000000
   0.00415141 -0.00415141 -0.00415141
