   2   2   0   0
  0.3146415E+02  0.4464646E-09  0.4464646E-09  0.4464646E-09  0.0000000E+00
  1.000000000000000E-004
  CAR 
 unknown system                          
     13.18759040     -7.14080901  301      4.04828083      1.00000000
     -7.141  0.0000E+00  0.0000E+00
     -7.073  0.0000E+00  0.0000E+00
     -7.005  0.0000E+00  0.0000E+00
     -6.938  0.0000E+00  0.0000E+00
     -6.870  0.0000E+00  0.0000E+00
     -6.802  0.0000E+00  0.0000E+00
     -6.734  0.0000E+00  0.0000E+00
     -6.666  0.0000E+00  0.0000E+00
     -6.599  0.0000E+00  0.0000E+00
     -6.531  0.0000E+00  0.0000E+00
     -6.463  0.0000E+00  0.0000E+00
     -6.395  0.0000E+00  0.0000E+00
     -6.328  0.0000E+00  0.0000E+00
     -6.260  0.0000E+00  0.0000E+00
     -6.192  0.1083E+00  0.8896E-03
     -6.124  0.1991E+00  0.1108E-01
     -6.057  0.2780E+00  0.2703E-01
     -5.989  0.3304E+00  0.4754E-01
     -5.921  0.3895E+00  0.7210E-01
     -5.853  0.4407E+00  0.1002E+00
     -5.786  0.4960E+00  0.1320E+00
     -5.718  0.5460E+00  0.1673E+00
     -5.650  0.6012E+00  0.2061E+00
     -5.582  0.6573E+00  0.2487E+00
     -5.515  0.7171E+00  0.2953E+00
     -5.447  0.7820E+00  0.3460E+00
     -5.379  0.8559E+00  0.4015E+00
     -5.311  0.9387E+00  0.4622E+00
     -5.243  0.1033E+01  0.5289E+00
     -5.176  0.1160E+01  0.6031E+00
     -5.108  0.1319E+01  0.6868E+00
     -5.040  0.1562E+01  0.7834E+00
     -4.972  0.2015E+01  0.9080E+00
     -4.905  0.2002E+01  0.1043E+01
     -4.837  0.2007E+01  0.1178E+01
     -4.769  0.1986E+01  0.1314E+01
     -4.701  0.2035E+01  0.1450E+01
     -4.634  0.2078E+01  0.1589E+01
     -4.566  0.2219E+01  0.1735E+01
     -4.498  0.2632E+01  0.1900E+01
     -4.430  0.0000E+00  0.2000E+01
     -4.363  0.0000E+00  0.2000E+01
     -4.295  0.0000E+00  0.2000E+01
     -4.227  0.0000E+00  0.2000E+01
     -4.159  0.0000E+00  0.2000E+01
     -4.092  0.0000E+00  0.2000E+01
     -4.024  0.0000E+00  0.2000E+01
     -3.956  0.0000E+00  0.2000E+01
     -3.888  0.0000E+00  0.2000E+01
     -3.821  0.0000E+00  0.2000E+01
     -3.753  0.0000E+00  0.2000E+01
     -3.685  0.0000E+00  0.2000E+01
     -3.617  0.0000E+00  0.2000E+01
     -3.549  0.0000E+00  0.2000E+01
     -3.482  0.0000E+00  0.2000E+01
     -3.414  0.0000E+00  0.2000E+01
     -3.346  0.0000E+00  0.2000E+01
     -3.278  0.0000E+00  0.2000E+01
     -3.211  0.0000E+00  0.2000E+01
     -3.143  0.0000E+00  0.2000E+01
     -3.075  0.0000E+00  0.2000E+01
     -3.007  0.0000E+00  0.2000E+01
     -2.940  0.0000E+00  0.2000E+01
     -2.872  0.0000E+00  0.2000E+01
     -2.804  0.0000E+00  0.2000E+01
     -2.736  0.0000E+00  0.2000E+01
     -2.669  0.0000E+00  0.2000E+01
     -2.601  0.0000E+00  0.2000E+01
     -2.533  0.0000E+00  0.2000E+01
     -2.465  0.0000E+00  0.2000E+01
     -2.398  0.0000E+00  0.2000E+01
     -2.330  0.0000E+00  0.2000E+01
     -2.262  0.0000E+00  0.2000E+01
     -2.194  0.0000E+00  0.2000E+01
     -2.126  0.0000E+00  0.2000E+01
     -2.059  0.0000E+00  0.2000E+01
     -1.991  0.0000E+00  0.2000E+01
     -1.923  0.0000E+00  0.2000E+01
     -1.855  0.0000E+00  0.2000E+01
     -1.788  0.0000E+00  0.2000E+01
     -1.720  0.0000E+00  0.2000E+01
     -1.652  0.0000E+00  0.2000E+01
     -1.584  0.0000E+00  0.2000E+01
     -1.517  0.0000E+00  0.2000E+01
     -1.449  0.0000E+00  0.2000E+01
     -1.381  0.0000E+00  0.2000E+01
     -1.313  0.0000E+00  0.2000E+01
     -1.246  0.0000E+00  0.2000E+01
     -1.178  0.1292E+00  0.2001E+01
     -1.110  0.6065E+00  0.2030E+01
     -1.042  0.1277E+01  0.2092E+01
     -0.975  0.2960E+01  0.2247E+01
     -0.907  0.4628E+01  0.2527E+01
     -0.839  0.2352E+01  0.2737E+01
     -0.771  0.1676E+01  0.2871E+01
     -0.703  0.1382E+01  0.2974E+01
     -0.636  0.1164E+01  0.3060E+01
     -0.568  0.9921E+00  0.3132E+01
     -0.500  0.8912E+00  0.3196E+01
     -0.432  0.8029E+00  0.3253E+01
     -0.365  0.7149E+00  0.3305E+01
     -0.297  0.6490E+00  0.3351E+01
     -0.229  0.6039E+00  0.3393E+01
     -0.161  0.5597E+00  0.3433E+01
     -0.094  0.5156E+00  0.3469E+01
     -0.026  0.4700E+00  0.3502E+01
      0.042  0.4409E+00  0.3533E+01
      0.110  0.4164E+00  0.3562E+01
      0.177  0.3920E+00  0.3590E+01
      0.245  0.3682E+00  0.3615E+01
      0.313  0.3412E+00  0.3639E+01
      0.381  0.3151E+00  0.3662E+01
      0.448  0.3002E+00  0.3682E+01
      0.516  0.2861E+00  0.3702E+01
      0.584  0.2717E+00  0.3721E+01
      0.652  0.2559E+00  0.3739E+01
      0.720  0.2404E+00  0.3756E+01
      0.787  0.2233E+00  0.3772E+01
      0.855  0.2091E+00  0.3786E+01
      0.923  0.2002E+00  0.3800E+01
      0.991  0.1909E+00  0.3813E+01
      1.058  0.7769E+00  0.3837E+01
      1.126  0.1101E+01  0.3897E+01
      1.194  0.1874E+01  0.3997E+01
      1.262  0.1784E+01  0.4121E+01
      1.329  0.1505E+01  0.4230E+01
      1.397  0.1460E+01  0.4331E+01
      1.465  0.1400E+01  0.4428E+01
      1.533  0.1310E+01  0.4518E+01
      1.600  0.1300E+01  0.4606E+01
      1.668  0.1355E+01  0.4696E+01
      1.736  0.1443E+01  0.4792E+01
      1.804  0.1457E+01  0.4891E+01
      1.871  0.1614E+01  0.4994E+01
      1.939  0.1750E+01  0.5103E+01
      2.007  0.2005E+01  0.5226E+01
      2.075  0.2088E+01  0.5368E+01
      2.142  0.2102E+01  0.5510E+01
      2.210  0.2041E+01  0.5651E+01
      2.278  0.2026E+01  0.5789E+01
      2.346  0.1997E+01  0.5925E+01
      2.414  0.1947E+01  0.6059E+01
      2.481  0.1924E+01  0.6189E+01
      2.549  0.1916E+01  0.6320E+01
      2.617  0.1875E+01  0.6448E+01
      2.685  0.1847E+01  0.6574E+01
      2.752  0.1826E+01  0.6699E+01
      2.820  0.1784E+01  0.6821E+01
      2.888  0.1776E+01  0.6941E+01
      2.956  0.1764E+01  0.7061E+01
      3.023  0.1751E+01  0.7181E+01
      3.091  0.1727E+01  0.7299E+01
      3.159  0.1716E+01  0.7415E+01
      3.227  0.1348E+01  0.7520E+01
      3.294  0.1128E+01  0.7603E+01
      3.362  0.9558E+00  0.7674E+01
      3.430  0.8344E+00  0.7734E+01
      3.498  0.7305E+00  0.7787E+01
      3.565  0.6425E+00  0.7834E+01
      3.633  0.5631E+00  0.7874E+01
      3.701  0.4765E+00  0.7910E+01
      3.769  0.4063E+00  0.7939E+01
      3.837  0.3357E+00  0.7965E+01
      3.904  0.2418E+00  0.7985E+01
      3.972  0.1311E+00  0.7997E+01
      4.040  0.0000E+00  0.8000E+01
      4.108  0.0000E+00  0.8000E+01
      4.175  0.0000E+00  0.8000E+01
      4.243  0.0000E+00  0.8000E+01
      4.311  0.0000E+00  0.8000E+01
      4.379  0.0000E+00  0.8000E+01
      4.446  0.0000E+00  0.8000E+01
      4.514  0.0000E+00  0.8000E+01
      4.582  0.0000E+00  0.8000E+01
      4.650  0.0000E+00  0.8000E+01
      4.717  0.0000E+00  0.8000E+01
      4.785  0.0000E+00  0.8000E+01
      4.853  0.0000E+00  0.8000E+01
      4.921  0.0000E+00  0.8000E+01
      4.988  0.0000E+00  0.8000E+01
      5.056  0.9785E-04  0.8000E+01
      5.124  0.7827E-03  0.8000E+01
      5.192  0.1112E-01  0.8000E+01
      5.260  0.4867E-01  0.8002E+01
      5.327  0.1013E+00  0.8007E+01
      5.395  0.2658E+00  0.8018E+01
      5.463  0.4348E+00  0.8042E+01
      5.531  0.5626E+00  0.8076E+01
      5.598  0.7112E+00  0.8119E+01
      5.666  0.8707E+00  0.8173E+01
      5.734  0.1010E+01  0.8236E+01
      5.802  0.1170E+01  0.8310E+01
      5.869  0.1330E+01  0.8395E+01
      5.937  0.1472E+01  0.8490E+01
      6.005  0.1647E+01  0.8595E+01
      6.073  0.1877E+01  0.8714E+01
      6.140  0.2295E+01  0.8854E+01
      6.208  0.2602E+01  0.9022E+01
      6.276  0.2524E+01  0.9201E+01
      6.344  0.2014E+01  0.9355E+01
      6.411  0.1800E+01  0.9483E+01
      6.479  0.1703E+01  0.9603E+01
      6.547  0.1444E+01  0.9709E+01
      6.615  0.1265E+01  0.9801E+01
      6.683  0.1096E+01  0.9882E+01
      6.750  0.9511E+00  0.9950E+01
      6.818  0.9586E+00  0.1001E+02
      6.886  0.1000E+01  0.1008E+02
      6.954  0.1116E+01  0.1015E+02
      7.021  0.1281E+01  0.1023E+02
      7.089  0.1351E+01  0.1033E+02
      7.157  0.1271E+01  0.1042E+02
      7.225  0.1165E+01  0.1050E+02
      7.292  0.1177E+01  0.1058E+02
      7.360  0.1218E+01  0.1066E+02
      7.428  0.1211E+01  0.1074E+02
      7.496  0.1589E+01  0.1083E+02
      7.563  0.3179E+01  0.1099E+02
      7.631  0.2656E+01  0.1119E+02
      7.699  0.2762E+01  0.1137E+02
      7.767  0.2061E+01  0.1153E+02
      7.834  0.1708E+01  0.1166E+02
      7.902  0.1660E+01  0.1177E+02
      7.970  0.1590E+01  0.1188E+02
      8.038  0.1508E+01  0.1199E+02
      8.105  0.1435E+01  0.1209E+02
      8.173  0.1284E+01  0.1218E+02
      8.241  0.1341E+01  0.1227E+02
      8.309  0.1484E+01  0.1236E+02
      8.377  0.1760E+01  0.1247E+02
      8.444  0.1911E+01  0.1260E+02
      8.512  0.2046E+01  0.1273E+02
      8.580  0.2074E+01  0.1288E+02
      8.648  0.1851E+01  0.1301E+02
      8.715  0.1985E+01  0.1314E+02
      8.783  0.1708E+01  0.1326E+02
      8.851  0.1777E+01  0.1338E+02
      8.919  0.1706E+01  0.1350E+02
      8.986  0.1516E+01  0.1361E+02
      9.054  0.1482E+01  0.1371E+02
      9.122  0.1387E+01  0.1381E+02
      9.190  0.1329E+01  0.1390E+02
      9.257  0.1394E+01  0.1399E+02
      9.325  0.1383E+01  0.1408E+02
      9.393  0.1550E+01  0.1418E+02
      9.461  0.1046E+01  0.1427E+02
      9.528  0.1001E+01  0.1434E+02
      9.596  0.1024E+01  0.1440E+02
      9.664  0.1126E+01  0.1448E+02
      9.732  0.1232E+01  0.1456E+02
      9.800  0.1256E+01  0.1464E+02
      9.867  0.1397E+01  0.1473E+02
      9.935  0.1558E+01  0.1483E+02
     10.003  0.1408E+01  0.1493E+02
     10.071  0.1308E+01  0.1502E+02
     10.138  0.1183E+01  0.1511E+02
     10.206  0.1068E+01  0.1518E+02
     10.274  0.9839E+00  0.1525E+02
     10.342  0.9303E+00  0.1532E+02
     10.409  0.8889E+00  0.1538E+02
     10.477  0.8631E+00  0.1544E+02
     10.545  0.8354E+00  0.1550E+02
     10.613  0.9874E+00  0.1555E+02
     10.680  0.9836E+00  0.1562E+02
     10.748  0.7627E+00  0.1568E+02
     10.816  0.5233E+00  0.1572E+02
     10.884  0.3872E+00  0.1575E+02
     10.951  0.3656E+00  0.1578E+02
     11.019  0.3405E+00  0.1580E+02
     11.087  0.3153E+00  0.1582E+02
     11.155  0.2934E+00  0.1584E+02
     11.223  0.2638E+00  0.1586E+02
     11.290  0.2614E+00  0.1588E+02
     11.358  0.2463E+00  0.1590E+02
     11.426  0.2186E+00  0.1591E+02
     11.494  0.1884E+00  0.1593E+02
     11.561  0.1650E+00  0.1594E+02
     11.629  0.1463E+00  0.1595E+02
     11.697  0.1303E+00  0.1596E+02
     11.765  0.1194E+00  0.1597E+02
     11.832  0.1065E+00  0.1598E+02
     11.900  0.9966E-01  0.1598E+02
     11.968  0.9833E-01  0.1599E+02
     12.036  0.5724E-01  0.1600E+02
     12.103  0.2826E-01  0.1600E+02
     12.171  0.9407E-02  0.1600E+02
     12.239  0.6690E-03  0.1600E+02
     12.307  0.0000E+00  0.1600E+02
     12.374  0.0000E+00  0.1600E+02
     12.442  0.0000E+00  0.1600E+02
     12.510  0.0000E+00  0.1600E+02
     12.578  0.0000E+00  0.1600E+02
     12.645  0.0000E+00  0.1600E+02
     12.713  0.0000E+00  0.1600E+02
     12.781  0.0000E+00  0.1600E+02
     12.849  0.0000E+00  0.1600E+02
     12.917  0.0000E+00  0.1600E+02
     12.984  0.0000E+00  0.1600E+02
     13.052  0.0000E+00  0.1600E+02
     13.120  0.0000E+00  0.1600E+02
     13.188  0.0000E+00  0.1600E+02
