    2    2    1    1
  0.3146415E+02  0.4464646E-09  0.4464646E-09  0.4464646E-09  0.0000000E+00
  1.000000000000000E-004
  CAR 
 unknown system                          
      8    195      8
 
  0.0000000E+00  0.0000000E+00  0.0000000E+00  0.1714678E-03
    1       -6.216791   1.000000
    2        4.029217   1.000000
    3        4.029217   1.000000
    4        4.029217   1.000000
    5        5.019167   0.000000
    6        7.075065   0.000000
    7        7.075065   0.000000
    8        7.075065   0.000000
 
  0.5555556E-01  0.0000000E+00  0.0000000E+00  0.1371742E-02
    1       -6.190934   1.000000
    2        3.562640   1.000000
    3        3.991724   1.000000
    4        3.991724   1.000000
    5        5.364813   0.000000
    6        7.133925   0.000000
    7        7.133925   0.000000
    8        7.138923   0.000000
 
  0.1111111E+00  0.0000000E+00  0.0000000E+00  0.1371742E-02
    1       -6.114199   1.000000
    2        2.785071   1.000000
    3        3.891247   1.000000
    4        3.891247   1.000000
    5        5.695729   0.000000
    6        7.289834   0.000000
    7        7.289834   0.000000
    8        7.445856   0.000000
 
  0.1666667E+00  0.0000000E+00  0.0000000E+00  0.1371742E-02
    1       -5.989563   1.000000
    2        1.982606   1.000000
    3        3.754467   1.000000
    4        3.754467   1.000000
    5        5.729062   0.000000
    6        7.489448   0.000000
    7        7.489448   0.000000
    8        8.056442   0.000000
 
  0.2222222E+00  0.0000000E+00  0.0000000E+00  0.1371742E-02
    1       -5.822697   1.000000
    2        1.212370   1.000000
    3        3.607694   1.000000
    4        3.607694   1.000000
    5        5.616109   0.000000
    6        7.665848   0.000000
    7        7.665848   0.000000
    8        8.818436   0.000000
 
  0.2777778E+00  0.0000000E+00  0.0000000E+00  0.1371742E-02
    1       -5.623523   1.000000
    2        0.504203   1.000000
    3        3.470146   1.000000
    4        3.470146   1.000000
    5        5.471033   0.000000
    6        7.768054   0.000000
    7        7.768054   0.000000
    8        9.619156   0.000000
 
  0.3333333E+00  0.0000000E+00  0.0000000E+00  0.1371742E-02
    1       -5.408798   1.000000
    2       -0.114398   1.000000
    3        3.354177   1.000000
    4        3.354177   1.000000
    5        5.338805   0.000000
    6        7.791806   0.000000
    7        7.791806   0.000000
    8       10.331438   0.000000
 
  0.3888889E+00  0.0000000E+00  0.0000000E+00  0.1371742E-02
    1       -5.205690   1.000000
    2       -0.609796   1.000000
    3        3.267269   1.000000
    4        3.267269   1.000000
    5        5.237366   0.000000
    6        7.771071   0.000000
    7        7.771072   0.000000
    8       10.603635   0.000000
 
  0.4444444E+00  0.0000000E+00  0.0000000E+00  0.1371742E-02
    1       -5.053848   1.000000
    2       -0.938412   1.000000
    3        3.213683   1.000000
    4        3.213683   1.000000
    5        5.174396   0.000000
    6        7.743275   0.000000
    7        7.743275   0.000000
    8       10.588733   0.000000
 
  0.5000000E+00  0.0000000E+00  0.0000000E+00  0.6858711E-03
    1       -4.996447   1.000000
    2       -1.054975   1.000000
    3        3.195598   1.000000
    4        3.195598   1.000000
    5        5.153105   0.000000
    6        7.731546   0.000000
    7        7.731546   0.000000
    8       10.569486   0.000000
 
  0.5555556E-01  0.5555556E-01  0.0000000E+00  0.1028807E-02
    1       -6.182286   1.000000
    2        3.538106   1.000000
    3        3.912728   1.000000
    4        3.912728   1.000000
    5        5.502740   0.000000
    6        6.965246   0.000000
    7        7.242307   0.000000
    8        7.242307   0.000000
 
  0.1111111E+00  0.5555556E-01  0.0000000E+00  0.4115226E-02
    1       -6.122432   1.000000
    2        2.945360   1.000000
    3        3.781617   1.000000
    4        3.841158   1.000000
    5        5.848669   0.000000
    6        6.944071   0.000000
    7        7.440238   0.000000
    8        7.497350   0.000000
 
  0.1666667E+00  0.5555556E-01  0.0000000E+00  0.4115226E-02
    1       -6.013607   1.000000
    2        2.194138   1.000000
    3        3.627802   1.000000
    4        3.736551   1.000000
    5        5.966482   0.000000
    6        7.091518   0.000000
    7        7.673820   0.000000
    8        7.973766   0.000000
 
  0.2222222E+00  0.5555556E-01  0.0000000E+00  0.4115226E-02
    1       -5.860446   1.000000
    2        1.436183   1.000000
    3        3.475902   1.000000
    4        3.589455   1.000000
    5        5.889885   0.000000
    6        7.317407   0.000000
    7        7.877470   0.000000
    8        8.584755   0.000000
 
  0.2777778E+00  0.5555556E-01  0.0000000E+00  0.4115226E-02
    1       -5.671268   1.000000
    2        0.720359   1.000000
    3        3.342698   1.000000
    4        3.427892   1.000000
    5        5.754038   0.000000
    6        7.504318   0.000000
    7        7.995521   0.000000
    8        9.209679   0.000000
 
  0.3333333E+00  0.5555556E-01  0.0000000E+00  0.4115226E-02
    1       -5.460174   1.000000
    2        0.078890   1.000000
    3        3.238483   1.000000
    4        3.273756   1.000000
    5        5.619243   0.000000
    6        7.602746   0.000000
    7        8.015418   0.000000
    8        9.804795   0.000000
 
  0.3888889E+00  0.5555556E-01  0.0000000E+00  0.4115226E-02
    1       -5.250389   1.000000
    2       -0.455053   1.000000
    3        3.141002   1.000000
    4        3.169116   1.000000
    5        5.508911   0.000000
    6        7.633733   0.000000
    7        7.969899   0.000000
    8       10.335841   0.000000
 
  0.4444444E+00  0.5555556E-01  0.0000000E+00  0.4115226E-02
    1       -5.077453   1.000000
    2       -0.840156   1.000000
    3        3.038215   1.000000
    4        3.137452   1.000000
    5        5.433182   0.000000
    6        7.643125   0.000000
    7        7.902028   0.000000
    8       10.620306   0.000000
 
  0.5000000E+00  0.5555556E-01  0.0000000E+00  0.4115226E-02
    1       -4.985178   1.000000
    2       -1.029381   1.000000
    3        2.970737   1.000000
    4        3.144226   1.000000
    5        5.396620   0.000000
    6        7.663612   0.000000
    7        7.841653   0.000000
    8       10.678851   0.000000
 
 -0.4444444E+00  0.5555556E-01  0.0000000E+00  0.4115226E-02
    1       -5.004565   1.000000
    2       -0.990370   1.000000
    3        2.941862   1.000000
    4        3.188521   1.000000
    5        5.400996   0.000000
    6        7.708790   0.000000
    7        7.802059   0.000000
    8       10.689496   0.000000
 
 -0.3888889E+00  0.5555556E-01  0.0000000E+00  0.4115226E-02
    1       -5.128597   1.000000
    2       -0.730489   1.000000
    3        2.953434   1.000000
    4        3.267842   1.000000
    5        5.446131   0.000000
    6        7.775791   0.000000
    7        7.781486   0.000000
    8       10.643099   0.000000
 
 -0.3333333E+00  0.5555556E-01  0.0000000E+00  0.4115226E-02
    1       -5.318573   1.000000
    2       -0.290430   1.000000
    3        3.006016   1.000000
    4        3.377974   1.000000
    5        5.529673   0.000000
    6        7.762888   0.000000
    7        7.844428   0.000000
    8       10.323466   0.000000
 
 -0.2777778E+00  0.5555556E-01  0.0000000E+00  0.4115226E-02
    1       -5.532097   1.000000
    2        0.283154   1.000000
    3        3.098752   1.000000
    4        3.512249   1.000000
    5        5.645585   0.000000
    6        7.714702   0.000000
    7        7.872148   0.000000
    8        9.710443   0.000000
 
 -0.2222222E+00  0.5555556E-01  0.0000000E+00  0.4115226E-02
    1       -5.737903   1.000000
    2        0.951500   1.000000
    3        3.228988   1.000000
    4        3.660350   1.000000
    5        5.779675   0.000000
    6        7.605464   0.000000
    7        7.796356   0.000000
    8        9.044848   0.000000
 
 -0.1666667E+00  0.5555556E-01  0.0000000E+00  0.4115226E-02
    1       -5.916228   1.000000
    2        1.681169   1.000000
    3        3.391795   1.000000
    4        3.806466   1.000000
    5        5.896600   0.000000
    6        7.437646   0.000000
    7        7.577622   0.000000
    8        8.419257   0.000000
 
 -0.1111111E+00  0.5555556E-01  0.0000000E+00  0.4115226E-02
    1       -6.055268   1.000000
    2        2.432194   1.000000
    3        3.580444   1.000000
    4        3.927759   1.000000
    5        5.905627   0.000000
    6        7.261274   0.000000
    7        7.289632   0.000000
    8        7.875983   0.000000
 
 -0.5555556E-01  0.5555556E-01  0.0000000E+00  0.2057613E-02
    1       -6.148069   1.000000
    2        3.124190   1.000000
    3        3.792608   1.000000
    4        3.996654   1.000000
    5        5.674248   0.000000
    6        7.127187   0.000000
    7        7.143709   0.000000
    8        7.442823   0.000000
 
  0.1111111E+00  0.1111111E+00  0.0000000E+00  0.1028807E-02
    1       -6.079666   1.000000
    2        2.766665   1.000000
    3        3.627006   1.000000
    4        3.627006   1.000000
    5        6.167426   0.000000
    6        6.758895   0.000000
    7        7.678967   0.000000
    8        7.678967   0.000000
 
  0.1666667E+00  0.1111111E+00  0.0000000E+00  0.4115226E-02
    1       -5.987437   1.000000
    2        2.231476   1.000000
    3        3.458022   1.000000
    4        3.489840   1.000000
    5        6.304270   0.000000
    6        6.799190   0.000000
    7        7.953485   0.000000
    8        8.041243   0.000000
 
  0.2222222E+00  0.1111111E+00  0.0000000E+00  0.4115226E-02
    1       -5.849549   1.000000
    2        1.566746   1.000000
    3        3.298259   1.000000
    4        3.335668   1.000000
    5        6.300421   0.000000
    6        6.956010   0.000000
    7        8.200074   0.000000
    8        8.453318   0.000000
 
  0.2777778E+00  0.1111111E+00  0.0000000E+00  0.4115226E-02
    1       -5.672973   1.000000
    2        0.891435   1.000000
    3        3.148180   1.000000
    4        3.163314   1.000000
    5        6.213302   0.000000
    6        7.192689   0.000000
    7        8.356690   0.000000
    8        8.737898   0.000000
 
  0.3333333E+00  0.1111111E+00  0.0000000E+00  0.4115226E-02
    1       -5.469605   1.000000
    2        0.259800   1.000000
    3        2.953524   1.000000
    4        3.062701   1.000000
    5        6.096634   0.000000
    6        7.399676   0.000000
    7        8.396785   0.000000
    8        9.025859   0.000000
 
  0.3888889E+00  0.1111111E+00  0.0000000E+00  0.4115226E-02
    1       -5.259157   1.000000
    2       -0.288115   1.000000
    3        2.773959   1.000000
    4        3.001732   1.000000
    5        5.988086   0.000000
    6        7.504984   0.000000
    7        8.346579   0.000000
    8        9.473829   0.000000
 
  0.4444444E+00  0.1111111E+00  0.0000000E+00  0.4115226E-02
    1       -5.072647   1.000000
    2       -0.710324   1.000000
    3        2.623498   1.000000
    4        2.982810   1.000000
    5        5.906097   0.000000
    6        7.546179   0.000000
    7        8.253706   0.000000
    8       10.051306   0.000000
 
  0.5000000E+00  0.1111111E+00  0.0000000E+00  0.4115226E-02
    1       -4.951612   1.000000
    2       -0.959153   1.000000
    3        2.510777   1.000000
    4        3.006136   1.000000
    5        5.859238   0.000000
    6        7.580358   0.000000
    7        8.155214   0.000000
    8       10.606839   0.000000
 
 -0.4444444E+00  0.1111111E+00  0.0000000E+00  0.4115226E-02
    1       -4.933504   1.000000
    2       -0.994446   1.000000
    3        2.441517   1.000000
    4        3.070032   1.000000
    5        5.850948   0.000000
    6        7.636809   0.000000
    7        8.070211   0.000000
    8       10.879359   0.000000
 
 -0.3888889E+00  0.1111111E+00  0.0000000E+00  0.4115226E-02
    1       -5.024745   1.000000
    2       -0.809651   1.000000
    3        2.419878   1.000000
    4        3.170868   1.000000
    5        5.881371   0.000000
    6        7.721814   0.000000
    7        8.001605   0.000000
    8       10.731713   0.000000
 
 -0.3333333E+00  0.1111111E+00  0.0000000E+00  0.4115226E-02
    1       -5.195067   1.000000
    2       -0.437837   1.000000
    3        2.449359   1.000000
    4        3.302729   1.000000
    5        5.947705   0.000000
    6        7.821827   0.000000
    7        7.936693   0.000000
    8       10.207177   0.000000
 
 -0.2777778E+00  0.1111111E+00  0.0000000E+00  0.4115226E-02
    1       -5.401744   1.000000
    2        0.071569   1.000000
    3        2.533651   1.000000
    4        3.456534   1.000000
    5        6.042727   0.000000
    6        7.848158   0.000000
    7        7.892692   0.000000
    8        9.585504   0.000000
 
 -0.2222222E+00  0.1111111E+00  0.0000000E+00  0.4115226E-02
    1       -5.609903   1.000000
    2        0.670352   1.000000
    3        2.678116   1.000000
    4        3.618723   1.000000
    5        6.149289   0.000000
    6        7.708672   0.000000
    7        7.837970   0.000000
    8        9.069436   0.000000
 
 -0.1666667E+00  0.1111111E+00  0.0000000E+00  0.4115226E-02
    1       -5.796621   1.000000
    2        1.309148   1.000000
    3        2.892853   1.000000
    4        3.769431   1.000000
    5        6.222991   0.000000
    6        7.525641   0.000000
    7        7.593074   0.000000
    8        8.713850   0.000000
 
 -0.1111111E+00  0.1111111E+00  0.0000000E+00  0.2057613E-02
    1       -5.947830   1.000000
    2        1.923369   1.000000
    3        3.195140   1.000000
    4        3.881907   1.000000
    5        6.160332   0.000000
    6        7.344732   0.000000
    7        7.353939   0.000000
    8        8.349509   0.000000
 
  0.1666667E+00  0.1666667E+00  0.0000000E+00  0.1028807E-02
    1       -5.911996   1.000000
    2        1.985761   1.000000
    3        3.276847   1.000000
    4        3.276848   1.000000
    5        6.205034   0.000000
    6        6.972331   0.000000
    7        8.276870   0.000000
    8        8.276870   0.000000
 
  0.2222222E+00  0.1666667E+00  0.0000000E+00  0.4115226E-02
    1       -5.790356   1.000000
    2        1.510586   1.000000
    3        3.098960   1.000000
    4        3.108003   1.000000
    5        6.155131   0.000000
    6        7.057676   0.000000
    7        8.567877   0.000000
    8        8.582131   0.000000
 
  0.2777778E+00  0.1666667E+00  0.0000000E+00  0.4115226E-02
    1       -5.628365   1.000000
    2        0.943953   1.000000
    3        2.886074   1.000000
    4        2.967027   1.000000
    5        6.211250   0.000000
    6        7.128222   0.000000
    7        8.620263   0.000000
    8        8.801122   0.000000
 
  0.3333333E+00  0.1666667E+00  0.0000000E+00  0.4115226E-02
    1       -5.436172   1.000000
    2        0.371724   1.000000
    3        2.647155   1.000000
    4        2.863432   1.000000
    5        6.232871   0.000000
    6        7.341173   0.000000
    7        8.588205   0.000000
    8        8.888660   0.000000
 
  0.3888889E+00  0.1666667E+00  0.0000000E+00  0.4115226E-02
    1       -5.230548   1.000000
    2       -0.152271   1.000000
    3        2.413825   1.000000
    4        2.802631   1.000000
    5        6.193672   0.000000
    6        7.608874   0.000000
    7        8.708116   0.000000
    8        8.857238   0.000000
 
  0.4444444E+00  0.1666667E+00  0.0000000E+00  0.4115226E-02
    1       -5.038210   1.000000
    2       -0.581267   1.000000
    3        2.208851   1.000000
    4        2.787119   1.000000
    5        6.146616   0.000000
    6        7.743547   0.000000
    7        8.757152   0.000000
    8        9.134601   0.000000
 
  0.5000000E+00  0.1666667E+00  0.0000000E+00  0.4115226E-02
    1       -4.896759   1.000000
    2       -0.866323   1.000000
    3        2.045892   1.000000
    4        2.817166   1.000000
    5        6.123823   0.000000
    6        7.780746   0.000000
    7        8.633910   0.000000
    8        9.786098   0.000000
 
 -0.4444444E+00  0.1666667E+00  0.0000000E+00  0.4115226E-02
    1       -4.845641   1.000000
    2       -0.962601   1.000000
    3        1.933718   1.000000
    4        2.890975   1.000000
    5        6.136556   0.000000
    6        7.811008   0.000000
    7        8.512982   0.000000
    8       10.502757   0.000000
 
 -0.3888889E+00  0.1666667E+00  0.0000000E+00  0.4115226E-02
    1       -4.902150   1.000000
    2       -0.851989   1.000000
    3        1.879384   1.000000
    4        3.004582   1.000000
    5        6.185549   0.000000
    6        7.868293   0.000000
    7        8.400847   0.000000
    8       10.743694   0.000000
 
 -0.3333333E+00  0.1666667E+00  0.0000000E+00  0.4115226E-02
    1       -5.047033   1.000000
    2       -0.558353   1.000000
    3        1.890541   1.000000
    4        3.151281   1.000000
    5        6.264724   0.000000
    6        7.955003   0.000000
    7        8.286220   0.000000
    8       10.102134   0.000000
 
 -0.2777778E+00  0.1666667E+00  0.0000000E+00  0.4115226E-02
    1       -5.240513   1.000000
    2       -0.133405   1.000000
    3        1.978101   1.000000
    4        3.320589   1.000000
    5        6.359914   0.000000
    6        8.040035   0.000000
    7        8.142184   0.000000
    8        9.423193   0.000000
 
 -0.2222222E+00  0.1666667E+00  0.0000000E+00  0.4115226E-02
    1       -5.445655   1.000000
    2        0.361878   1.000000
    3        2.159923   1.000000
    4        3.496615   1.000000
    5        6.439569   0.000000
    6        7.945842   0.000000
    7        8.007101   0.000000
    8        8.946959   0.000000
 
 -0.1666667E+00  0.1666667E+00  0.0000000E+00  0.2057613E-02
    1       -5.636461   1.000000
    2        0.862063   1.000000
    3        2.461262   1.000000
    4        3.656268   1.000000
    5        6.428598   0.000000
    6        7.717984   0.000000
    7        7.764772   0.000000
    8        8.804925   0.000000
 
  0.2222222E+00  0.2222222E+00  0.0000000E+00  0.1028807E-02
    1       -5.685262   1.000000
    2        1.231630   1.000000
    3        2.929969   1.000000
    4        2.929969   1.000000
    5        5.918264   0.000000
    6        7.077619   0.000000
    7        8.963717   0.000000
    8        8.963717   0.000000
 
  0.2777778E+00  0.2222222E+00  0.0000000E+00  0.4115226E-02
    1       -5.539259   1.000000
    2        0.811719   1.000000
    3        2.735003   1.000000
    4        2.780496   1.000000
    5        5.880908   0.000000
    6        6.997686   0.000000
    7        9.104074   0.000000
    8        9.272528   0.000000
 
  0.3333333E+00  0.2222222E+00  0.0000000E+00  0.4115226E-02
    1       -5.361127   1.000000
    2        0.343109   1.000000
    3        2.474771   1.000000
    4        2.669648   1.000000
    5        5.975196   0.000000
    6        7.031283   0.000000
    7        8.996074   0.000000
    8        9.441535   0.000000
 
  0.3888889E+00  0.2222222E+00  0.0000000E+00  0.4115226E-02
    1       -5.165354   1.000000
    2       -0.112910   1.000000
    3        2.187236   1.000000
    4        2.603271   1.000000
    5        6.039287   0.000000
    6        7.319465   0.000000
    7        8.862581   0.000000
    8        9.458425   0.000000
 
  0.4444444E+00  0.2222222E+00  0.0000000E+00  0.4115226E-02
    1       -4.974958   1.000000
    2       -0.507777   1.000000
    3        1.916447   1.000000
    4        2.584235   1.000000
    5        6.047917   0.000000
    6        7.813825   0.000000
    7        8.788775   0.000000
    8        9.371488   0.000000
 
  0.5000000E+00  0.2222222E+00  0.0000000E+00  0.4115226E-02
    1       -4.823042   1.000000
    2       -0.793432   1.000000
    3        1.689990   1.000000
    4        2.613120   1.000000
    5        6.058950   0.000000
    6        8.247608   0.000000
    7        8.965020   0.000000
    8        9.236959   0.000000
 
 -0.4444444E+00  0.2222222E+00  0.0000000E+00  0.4115226E-02
    1       -4.747390   1.000000
    2       -0.924397   1.000000
    3        1.524216   1.000000
    4        2.688395   1.000000
    5        6.102581   0.000000
    6        8.359219   0.000000
    7        9.088512   0.000000
    8        9.597828   0.000000
 
 -0.3888889E+00  0.2222222E+00  0.0000000E+00  0.4115226E-02
    1       -4.771653   1.000000
    2       -0.876272   1.000000
    3        1.431559   1.000000
    4        2.806249   1.000000
    5        6.185180   0.000000
    6        8.386198   0.000000
    7        8.935085   0.000000
    8       10.356987   0.000000
 
 -0.3333333E+00  0.2222222E+00  0.0000000E+00  0.4115226E-02
    1       -4.887379   1.000000
    2       -0.665416   1.000000
    3        1.426274   1.000000
    4        2.959972   1.000000
    5        6.299400   0.000000
    6        8.430821   0.000000
    7        8.762251   0.000000
    8       10.024746   0.000000
 
 -0.2777778E+00  0.2222222E+00  0.0000000E+00  0.4115226E-02
    1       -5.061223   1.000000
    2       -0.344912   1.000000
    3        1.529200   1.000000
    4        3.138737   1.000000
    5        6.423037   0.000000
    6        8.491748   0.000000
    7        8.538171   0.000000
    8        9.292450   0.000000
 
 -0.2222222E+00  0.2222222E+00  0.0000000E+00  0.2057613E-02
    1       -5.256611   1.000000
    2        0.016682   1.000000
    3        1.768007   1.000000
    4        3.325841   1.000000
    5        6.504882   0.000000
    6        8.249821   0.000000
    7        8.376326   0.000000
    8        8.874621   0.000000
 
  0.2777778E+00  0.2777778E+00  0.0000000E+00  0.1028807E-02
    1       -5.409978   1.000000
    2        0.521057   1.000000
    3        2.621439   1.000000
    4        2.621439   1.000000
    5        5.657042   0.000000
    6        6.774189   0.000000
    7        9.699684   0.000000
    8        9.699686   0.000000
 
  0.3333333E+00  0.2777778E+00  0.0000000E+00  0.4115226E-02
    1       -5.248296   1.000000
    2        0.156275   1.000000
    3        2.426456   1.000000
    4        2.500900   1.000000
    5        5.652226   0.000000
    6        6.631408   0.000000
    7        9.794604   0.000000
    8        9.995209   0.000000
 
  0.3888889E+00  0.2777778E+00  0.0000000E+00  0.4115226E-02
    1       -5.067079   1.000000
    2       -0.215252   1.000000
    3        2.137316   1.000000
    4        2.425393   1.000000
    5        5.766830   0.000000
    6        6.702155   0.000000
    7        9.670080   0.000000
    8       10.104507   0.000000
 
  0.4444444E+00  0.2777778E+00  0.0000000E+00  0.4115226E-02
    1       -4.886479   1.000000
    2       -0.546298   1.000000
    3        1.815843   1.000000
    4        2.398334   1.000000
    5        5.835384   0.000000
    6        7.087883   0.000000
    7        9.525520   0.000000
    8       10.059077   0.000000
 
  0.5000000E+00  0.2777778E+00  0.0000000E+00  0.4115226E-02
    1       -4.735322   1.000000
    2       -0.795480   1.000000
    3        1.520194   1.000000
    4        2.420734   1.000000
    5        5.870901   0.000000
    6        7.709307   0.000000
    7        9.404813   0.000000
    8        9.928196   0.000000
 
 -0.4444444E+00  0.2777778E+00  0.0000000E+00  0.4115226E-02
    1       -4.647420   1.000000
    2       -0.924871   1.000000
    3        1.287864   1.000000
    4        2.491482   1.000000
    5        5.929433   0.000000
    6        8.446196   0.000000
    7        9.342204   0.000000
    8        9.757651   0.000000
 
 -0.3888889E+00  0.2777778E+00  0.0000000E+00  0.4115226E-02
    1       -4.647422   1.000000
    2       -0.913760   1.000000
    3        1.145382   1.000000
    4        2.607179   1.000000
    5        6.028794   0.000000
    6        9.028329   0.000000
    7        9.554158   0.000000
    8        9.556889   0.000000
 
 -0.3333333E+00  0.2777778E+00  0.0000000E+00  0.4115226E-02
    1       -4.734480   1.000000
    2       -0.777868   1.000000
    3        1.119000   1.000000
    4        2.761544   1.000000
    5        6.165163   0.000000
    6        9.130931   0.000000
    7        9.300491   0.000000
    8        9.939222   0.000000
 
 -0.2777778E+00  0.2777778E+00  0.0000000E+00  0.2057613E-02
    1       -4.883329   1.000000
    2       -0.568896   1.000000
    3        1.239266   1.000000
    4        2.944183   1.000000
    5        6.316062   0.000000
    6        8.952904   0.000000
    7        9.113470   0.000000
    8        9.270769   0.000000
 
  0.3333333E+00  0.3333333E+00  0.0000000E+00  0.1028807E-02
    1       -5.104851   1.000000
    2       -0.125268   1.000000
    3        2.369507   1.000000
    4        2.369507   1.000000
    5        5.464820   0.000000
    6        6.346806   0.000000
    7       10.460409   0.000000
    8       10.460415   0.000000
 
  0.3888889E+00  0.3333333E+00  0.0000000E+00  0.4115226E-02
    1       -4.942701   1.000000
    2       -0.426665   1.000000
    3        2.187188   1.000000
    4        2.282881   1.000000
    5        5.497520   0.000000
    6        6.227593   0.000000
    7       10.561189   0.000000
    8       10.730084   0.000000
 
  0.4444444E+00  0.3333333E+00  0.0000000E+00  0.4115226E-02
    1       -4.780038   1.000000
    2       -0.695118   1.000000
    3        1.889789   1.000000
    4        2.245069   1.000000
    5        5.617334   0.000000
    6        6.388014   0.000000
    7       10.443760   0.000000
    8       10.775897   0.000000
 
  0.5000000E+00  0.3333333E+00  0.0000000E+00  0.4115226E-02
    1       -4.642135   1.000000
    2       -0.892614   1.000000
    3        1.558528   1.000000
    4        2.257613   1.000000
    5        5.681669   0.000000
    6        6.885298   0.000000
    7       10.302105   0.000000
    8       10.670546   0.000000
 
 -0.4444444E+00  0.3333333E+00  0.0000000E+00  0.4115226E-02
    1       -4.557560   1.000000
    2       -0.991691   1.000000
    3        1.265758   1.000000
    4        2.319902   1.000000
    5        5.746677   0.000000
    6        7.590802   0.000000
    7       10.175640   0.000000
    8       10.478630   0.000000
 
 -0.3888889E+00  0.3333333E+00  0.0000000E+00  0.4115226E-02
    1       -4.547242   1.000000
    2       -0.984646   1.000000
    3        1.064765   1.000000
    4        2.429077   1.000000
    5        5.851092   0.000000
    6        8.412352   0.000000
    7       10.072834   0.000000
    8       10.205631   0.000000
 
 -0.3333333E+00  0.3333333E+00  0.0000000E+00  0.2057613E-02
    1       -4.612349   1.000000
    2       -0.896635   1.000000
    3        1.002275   1.000000
    4        2.579476   1.000000
    5        5.997025   0.000000
    6        9.262460   0.000000
    7        9.811609   0.000000
    8        9.908237   0.000000
 
  0.3888889E+00  0.3888889E+00  0.0000000E+00  0.1028807E-02
    1       -4.803788   1.000000
    2       -0.671899   1.000000
    3        2.184195   1.000000
    4        2.184195   1.000000
    5        5.357643   0.000000
    6        5.956072   0.000000
    7       11.220511   0.000000
    8       11.220513   0.000000
 
  0.4444444E+00  0.3888889E+00  0.0000000E+00  0.4115226E-02
    1       -4.667587   1.000000
    2       -0.888860   1.000000
    3        2.024534   1.000000
    4        2.134120   1.000000
    5        5.427265   0.000000
    6        5.894297   0.000000
    7       11.331610   0.000000
    8       11.445104   0.000000
 
  0.5000000E+00  0.3888889E+00  0.0000000E+00  0.4115226E-02
    1       -4.556440   1.000000
    2       -1.036561   1.000000
    3        1.739394   1.000000
    4        2.134787   1.000000
    5        5.531801   0.000000
    6        6.176821   0.000000
    7       11.218999   0.000000
    8       11.407316   0.000000
 
 -0.4444444E+00  0.3888889E+00  0.0000000E+00  0.4115226E-02
    1       -4.492933   1.000000
    2       -1.093081   1.000000
    3        1.427670   1.000000
    4        2.186128   1.000000
    5        5.600313   0.000000
    6        6.777278   0.000000
    7       11.053683   0.000000
    8       11.185075   0.000000
 
 -0.3888889E+00  0.3888889E+00  0.0000000E+00  0.2057613E-02
    1       -4.490667   1.000000
    2       -1.062976   1.000000
    3        1.178178   1.000000
    4        2.285864   1.000000
    5        5.702945   0.000000
    6        7.547331   0.000000
    7       10.767272   0.000000
    8       10.782695   0.000000
 
  0.4444444E+00  0.4444444E+00  0.0000000E+00  0.1028807E-02
    1       -4.565994   1.000000
    2       -1.057957   1.000000
    3        2.071106   1.000000
    4        2.071106   1.000000
    5        5.343012   0.000000
    6        5.657334   0.000000
    7       11.912571   0.000000
    8       11.912571   0.000000
 
  0.5000000E+00  0.4444444E+00  0.0000000E+00  0.4115226E-02
    1       -4.494641   1.000000
    2       -1.156108   1.000000
    3        1.942359   1.000000
    4        2.058802   1.000000
    5        5.433783   0.000000
    6        5.679415   0.000000
    7       11.973758   0.000000
    8       12.014457   0.000000
 
 -0.4444444E+00  0.4444444E+00  0.0000000E+00  0.2057613E-02
    1       -4.468989   1.000000
    2       -1.163696   1.000000
    3        1.689014   1.000000
    4        2.097703   1.000000
    5        5.504842   0.000000
    6        6.102599   0.000000
    7       11.707185   0.000000
    8       11.747332   0.000000
 
  0.5000000E+00  0.5000000E+00  0.0000000E+00  0.5144033E-03
    1       -4.471904   1.000000
    2       -1.201619   1.000000
    3        2.033114   1.000000
    4        2.033114   1.000000
    5        5.390125   0.000000
    6        5.503853   0.000000
    7       12.263572   0.000000
    8       12.263572   0.000000
 