       N       E                     dE             d eps       ncg     rms          rms(c)
DAV:   1     0.127934245059E+02    0.12793E+02   -0.28257E+03  3120   0.733E+02
DAV:   2    -0.775099651339E+01   -0.20544E+02   -0.20238E+02  4400   0.818E+01
DAV:   3    -0.825328728619E+01   -0.50229E+00   -0.50229E+00  4248   0.141E+01
DAV:   4    -0.825647064156E+01   -0.31834E-02   -0.31834E-02  4568   0.137E+00
DAV:   5    -0.825648591487E+01   -0.15273E-04   -0.15273E-04  4296   0.811E-02    0.202E+00
RMM:   6    -0.820030090792E+01    0.56185E-01   -0.52652E-02  3124   0.128E+00    0.121E+00
RMM:   7    -0.818462681165E+01    0.15674E-01   -0.57895E-02  3187   0.146E+00    0.234E-01
RMM:   8    -0.818526568744E+01   -0.63888E-03   -0.38705E-03  3213   0.444E-01    0.487E-02
RMM:   9    -0.818567375746E+01   -0.40807E-03   -0.63716E-04  3290   0.175E-01    0.147E-02
RMM:  10    -0.818568400358E+01   -0.10246E-04   -0.53661E-05  3621   0.544E-02    0.431E-03
RMM:  11    -0.818568734996E+01   -0.33464E-05   -0.10032E-05  3515   0.245E-02    0.179E-03
RMM:  12    -0.818568775316E+01   -0.40320E-06   -0.54254E-07  2631   0.684E-03
   1 F= -.81856878E+01 E0= -.81856878E+01  d E =0.000000E+00
