   2   2   0   0
  0.1396839E+02  0.3405889E-09  0.3405889E-09  0.3405889E-09  0.1000000E-15
  1.000000000000000E-004
  CAR 
 unknown system                          
     18.27922252    -10.57249318  301      6.35422237      1.00000000
    -10.572  0.0000E+00  0.0000E+00
    -10.476  0.0000E+00  0.0000E+00
    -10.380  0.0000E+00  0.0000E+00
    -10.284  0.0000E+00  0.0000E+00
    -10.188  0.0000E+00  0.0000E+00
    -10.092  0.0000E+00  0.0000E+00
     -9.995  0.0000E+00  0.0000E+00
     -9.899  0.0000E+00  0.0000E+00
     -9.803  0.3352E-18  0.3224E-19
     -9.707  0.6466E-14  0.6219E-15
     -9.611  0.2259E-10  0.2174E-11
     -9.515  0.1471E-07  0.1417E-08
     -9.418  0.1882E-05  0.1824E-06
     -9.322  0.5265E-04  0.5246E-05
     -9.226  0.3964E-03  0.4337E-04
     -9.130  0.1104E-02  0.1495E-03
     -9.034  0.1751E-02  0.3179E-03
     -8.938  0.2209E-02  0.5304E-03
     -8.841  0.2618E-02  0.7822E-03
     -8.745  0.2907E-02  0.1062E-02
     -8.649  0.3325E-02  0.1382E-02
     -8.553  0.3426E-02  0.1711E-02
     -8.457  0.3959E-02  0.2092E-02
     -8.361  0.4026E-02  0.2479E-02
     -8.264  0.4226E-02  0.2885E-02
     -8.168  0.4885E-02  0.3355E-02
     -8.072  0.4638E-02  0.3801E-02
     -7.976  0.4977E-02  0.4280E-02
     -7.880  0.5726E-02  0.4831E-02
     -7.783  0.5429E-02  0.5353E-02
     -7.687  0.5568E-02  0.5888E-02
     -7.591  0.6414E-02  0.6505E-02
     -7.495  0.6671E-02  0.7147E-02
     -7.399  0.6073E-02  0.7731E-02
     -7.303  0.6985E-02  0.8402E-02
     -7.206  0.7845E-02  0.9157E-02
     -7.110  0.7452E-02  0.9873E-02
     -7.014  0.7330E-02  0.1058E-01
     -6.918  0.8816E-02  0.1143E-01
     -6.822  0.9252E-02  0.1232E-01
     -6.726  0.9082E-02  0.1319E-01
     -6.629  0.9584E-02  0.1411E-01
     -6.533  0.1166E-01  0.1523E-01
     -6.437  0.1318E-01  0.1650E-01
     -6.341  0.1231E-01  0.1768E-01
     -6.245  0.1314E-01  0.1895E-01
     -6.149  0.1390E-01  0.2029E-01
     -6.052  0.1222E-01  0.2146E-01
     -5.956  0.1200E-01  0.2261E-01
     -5.860  0.1288E-01  0.2385E-01
     -5.764  0.1193E-01  0.2500E-01
     -5.668  0.1162E-01  0.2612E-01
     -5.572  0.1202E-01  0.2727E-01
     -5.475  0.1178E-01  0.2841E-01
     -5.379  0.1184E-01  0.2955E-01
     -5.283  0.1260E-01  0.3076E-01
     -5.187  0.1298E-01  0.3201E-01
     -5.091  0.9797E-02  0.3295E-01
     -4.994  0.3515E-02  0.3329E-01
     -4.898  0.4709E-03  0.3333E-01
     -4.802  0.1861E-04  0.3333E-01
     -4.706  0.1650E-06  0.3333E-01
     -4.610  0.2759E-09  0.3333E-01
     -4.514  0.8019E-13  0.3333E-01
     -4.417  0.3871E-17  0.3333E-01
     -4.321  0.0000E+00  0.3333E-01
     -4.225  0.0000E+00  0.3333E-01
     -4.129  0.0000E+00  0.3333E-01
     -4.033  0.0000E+00  0.3333E-01
     -3.937  0.0000E+00  0.3333E-01
     -3.840  0.0000E+00  0.3333E-01
     -3.744  0.0000E+00  0.3333E-01
     -3.648  0.0000E+00  0.3333E-01
     -3.552  0.0000E+00  0.3333E-01
     -3.456  0.0000E+00  0.3333E-01
     -3.360  0.0000E+00  0.3333E-01
     -3.263  0.7590E-19  0.3333E-01
     -3.167  0.2237E-14  0.3333E-01
     -3.071  0.1290E-10  0.3333E-01
     -2.975  0.1251E-07  0.3333E-01
     -2.879  0.2155E-05  0.3333E-01
     -2.783  0.7445E-04  0.3334E-01
     -2.686  0.6646E-03  0.3340E-01
     -2.590  0.2162E-02  0.3361E-01
     -2.494  0.4001E-02  0.3400E-01
     -2.398  0.6634E-02  0.3464E-01
     -2.302  0.9415E-02  0.3554E-01
     -2.205  0.1312E-01  0.3680E-01
     -2.109  0.1901E-01  0.3863E-01
     -2.013  0.2595E-01  0.4113E-01
     -1.917  0.2710E-01  0.4373E-01
     -1.821  0.2114E-01  0.4577E-01
     -1.725  0.1430E-01  0.4714E-01
     -1.628  0.1293E-01  0.4838E-01
     -1.532  0.1207E-01  0.4955E-01
     -1.436  0.9332E-02  0.5044E-01
     -1.340  0.8953E-02  0.5130E-01
     -1.244  0.8530E-02  0.5212E-01
     -1.148  0.8366E-02  0.5293E-01
     -1.051  0.6521E-02  0.5356E-01
     -0.955  0.6660E-02  0.5420E-01
     -0.859  0.6953E-02  0.5487E-01
     -0.763  0.5994E-02  0.5544E-01
     -0.667  0.5119E-02  0.5593E-01
     -0.571  0.5501E-02  0.5646E-01
     -0.474  0.5628E-02  0.5700E-01
     -0.378  0.4347E-02  0.5742E-01
     -0.282  0.5098E-02  0.5791E-01
     -0.186  0.4048E-02  0.5830E-01
     -0.090  0.3615E-02  0.5865E-01
      0.006  0.6488E-02  0.5927E-01
      0.103  0.7273E-02  0.5997E-01
      0.199  0.8735E-02  0.6081E-01
      0.295  0.1178E-01  0.6195E-01
      0.391  0.1327E-01  0.6322E-01
      0.487  0.1527E-01  0.6469E-01
      0.584  0.1591E-01  0.6622E-01
      0.680  0.1193E-01  0.6737E-01
      0.776  0.1301E-01  0.6862E-01
      0.872  0.1543E-01  0.7010E-01
      0.968  0.1150E-01  0.7121E-01
      1.064  0.1183E-01  0.7235E-01
      1.161  0.1563E-01  0.7385E-01
      1.257  0.1448E-01  0.7524E-01
      1.353  0.1265E-01  0.7646E-01
      1.449  0.1416E-01  0.7782E-01
      1.545  0.1571E-01  0.7933E-01
      1.641  0.1392E-01  0.8067E-01
      1.738  0.1610E-01  0.8222E-01
      1.834  0.1904E-01  0.8405E-01
      1.930  0.1860E-01  0.8584E-01
      2.026  0.1828E-01  0.8760E-01
      2.122  0.1903E-01  0.8943E-01
      2.218  0.2041E-01  0.9139E-01
      2.315  0.1974E-01  0.9329E-01
      2.411  0.1783E-01  0.9500E-01
      2.507  0.2021E-01  0.9695E-01
      2.603  0.1974E-01  0.9884E-01
      2.699  0.1704E-01  0.1005E+00
      2.795  0.1670E-01  0.1021E+00
      2.892  0.1802E-01  0.1038E+00
      2.988  0.1762E-01  0.1055E+00
      3.084  0.1790E-01  0.1072E+00
      3.180  0.1888E-01  0.1091E+00
      3.276  0.1603E-01  0.1106E+00
      3.373  0.1496E-01  0.1120E+00
      3.469  0.1595E-01  0.1136E+00
      3.565  0.1676E-01  0.1152E+00
      3.661  0.1645E-01  0.1168E+00
      3.757  0.1611E-01  0.1183E+00
      3.853  0.1488E-01  0.1197E+00
      3.950  0.1536E-01  0.1212E+00
      4.046  0.1477E-01  0.1226E+00
      4.142  0.1352E-01  0.1239E+00
      4.238  0.1265E-01  0.1252E+00
      4.334  0.1027E-01  0.1261E+00
      4.430  0.9375E-02  0.1270E+00
      4.527  0.8978E-02  0.1279E+00
      4.623  0.7536E-02  0.1286E+00
      4.719  0.6708E-02  0.1293E+00
      4.815  0.6379E-02  0.1299E+00
      4.911  0.4840E-02  0.1304E+00
      5.007  0.5235E-02  0.1309E+00
      5.104  0.5257E-02  0.1314E+00
      5.200  0.4013E-02  0.1318E+00
      5.296  0.3898E-02  0.1321E+00
      5.392  0.2747E-02  0.1324E+00
      5.488  0.2516E-02  0.1326E+00
      5.584  0.2714E-02  0.1329E+00
      5.681  0.2002E-02  0.1331E+00
      5.777  0.1420E-02  0.1332E+00
      5.873  0.7669E-03  0.1333E+00
      5.969  0.2991E-03  0.1333E+00
      6.065  0.4116E-04  0.1333E+00
      6.162  0.1428E-05  0.1333E+00
      6.258  0.1151E-07  0.1333E+00
      6.354  0.1917E-10  0.1333E+00
      6.450  0.5842E-14  0.1333E+00
      6.546  0.7970E-18  0.1333E+00
      6.642  0.1004E-13  0.1333E+00
      6.739  0.3355E-10  0.1333E+00
      6.835  0.1942E-07  0.1333E+00
      6.931  0.2095E-05  0.1333E+00
      7.027  0.4927E-04  0.1333E+00
      7.123  0.3530E-03  0.1334E+00
      7.219  0.1152E-02  0.1335E+00
      7.316  0.2171E-02  0.1337E+00
      7.412  0.2970E-02  0.1340E+00
      7.508  0.3866E-02  0.1343E+00
      7.604  0.5134E-02  0.1348E+00
      7.700  0.5870E-02  0.1354E+00
      7.796  0.6289E-02  0.1360E+00
      7.893  0.6272E-02  0.1366E+00
      7.989  0.7310E-02  0.1373E+00
      8.085  0.7951E-02  0.1381E+00
      8.181  0.9281E-02  0.1390E+00
      8.277  0.9997E-02  0.1399E+00
      8.373  0.1004E-01  0.1409E+00
      8.470  0.1099E-01  0.1420E+00
      8.566  0.1145E-01  0.1431E+00
      8.662  0.1340E-01  0.1443E+00
      8.758  0.1494E-01  0.1458E+00
      8.854  0.1668E-01  0.1474E+00
      8.951  0.2054E-01  0.1494E+00
      9.047  0.2412E-01  0.1517E+00
      9.143  0.2616E-01  0.1542E+00
      9.239  0.2668E-01  0.1568E+00
      9.335  0.2183E-01  0.1589E+00
      9.431  0.2016E-01  0.1608E+00
      9.528  0.1980E-01  0.1627E+00
      9.624  0.1743E-01  0.1644E+00
      9.720  0.1897E-01  0.1662E+00
      9.816  0.1914E-01  0.1680E+00
      9.912  0.1470E-01  0.1695E+00
     10.008  0.1189E-01  0.1706E+00
     10.105  0.1287E-01  0.1718E+00
     10.201  0.1344E-01  0.1731E+00
     10.297  0.1280E-01  0.1744E+00
     10.393  0.1424E-01  0.1757E+00
     10.489  0.2128E-01  0.1778E+00
     10.585  0.2644E-01  0.1803E+00
     10.682  0.2698E-01  0.1829E+00
     10.778  0.2533E-01  0.1854E+00
     10.874  0.2564E-01  0.1878E+00
     10.970  0.2807E-01  0.1905E+00
     11.066  0.2607E-01  0.1930E+00
     11.162  0.1981E-01  0.1949E+00
     11.259  0.1526E-01  0.1964E+00
     11.355  0.1695E-01  0.1980E+00
     11.451  0.1721E-01  0.1997E+00
     11.547  0.1419E-01  0.2011E+00
     11.643  0.1814E-01  0.2028E+00
     11.740  0.2143E-01  0.2049E+00
     11.836  0.1770E-01  0.2066E+00
     11.932  0.1573E-01  0.2081E+00
     12.028  0.1728E-01  0.2097E+00
     12.124  0.1881E-01  0.2115E+00
     12.220  0.1833E-01  0.2133E+00
     12.317  0.2130E-01  0.2154E+00
     12.413  0.2111E-01  0.2174E+00
     12.509  0.1857E-01  0.2192E+00
     12.605  0.1717E-01  0.2208E+00
     12.701  0.1652E-01  0.2224E+00
     12.797  0.1771E-01  0.2241E+00
     12.894  0.1794E-01  0.2258E+00
     12.990  0.1946E-01  0.2277E+00
     13.086  0.1891E-01  0.2295E+00
     13.182  0.1654E-01  0.2311E+00
     13.278  0.1569E-01  0.2326E+00
     13.374  0.1339E-01  0.2339E+00
     13.471  0.1230E-01  0.2351E+00
     13.567  0.1230E-01  0.2363E+00
     13.663  0.1216E-01  0.2375E+00
     13.759  0.1104E-01  0.2385E+00
     13.855  0.1137E-01  0.2396E+00
     13.951  0.1486E-01  0.2410E+00
     14.048  0.1464E-01  0.2424E+00
     14.144  0.1293E-01  0.2437E+00
     14.240  0.1045E-01  0.2447E+00
     14.336  0.9835E-02  0.2456E+00
     14.432  0.1059E-01  0.2467E+00
     14.528  0.1638E-01  0.2482E+00
     14.625  0.2201E-01  0.2504E+00
     14.721  0.2353E-01  0.2526E+00
     14.817  0.2387E-01  0.2549E+00
     14.913  0.1816E-01  0.2567E+00
     15.009  0.1139E-01  0.2578E+00
     15.106  0.8959E-02  0.2586E+00
     15.202  0.8240E-02  0.2594E+00
     15.298  0.6453E-02  0.2600E+00
     15.394  0.8315E-02  0.2608E+00
     15.490  0.1011E-01  0.2618E+00
     15.586  0.7407E-02  0.2625E+00
     15.683  0.4063E-02  0.2629E+00
     15.779  0.2986E-02  0.2632E+00
     15.875  0.3438E-02  0.2635E+00
     15.971  0.4582E-02  0.2640E+00
     16.067  0.4574E-02  0.2644E+00
     16.163  0.5138E-02  0.2649E+00
     16.260  0.4348E-02  0.2653E+00
     16.356  0.2493E-02  0.2656E+00
     16.452  0.1788E-02  0.2657E+00
     16.548  0.1938E-02  0.2659E+00
     16.644  0.2586E-02  0.2662E+00
     16.740  0.2455E-02  0.2664E+00
     16.837  0.1265E-02  0.2665E+00
     16.933  0.8299E-03  0.2666E+00
     17.029  0.5890E-03  0.2667E+00
     17.125  0.1344E-03  0.2667E+00
     17.221  0.7198E-05  0.2667E+00
     17.317  0.7799E-07  0.2667E+00
     17.414  0.1562E-09  0.2667E+00
     17.510  0.5475E-13  0.2667E+00
     17.606  0.3264E-17  0.2667E+00
     17.702  0.0000E+00  0.2667E+00
     17.798  0.0000E+00  0.2667E+00
     17.895  0.0000E+00  0.2667E+00
     17.991  0.0000E+00  0.2667E+00
     18.087  0.0000E+00  0.2667E+00
     18.183  0.0000E+00  0.2667E+00
     18.279  0.0000E+00  0.2667E+00
