    2    2   60    1
  0.1396839E+02  0.3405889E-09  0.3405889E-09  0.3405889E-09  0.1000000E-15
  1.000000000000000E-004
  CAR 
 unknown system                          
      8    364      8
 
  0.0000000E+00  0.0000000E+00  0.0000000E+00  0.8218953E-04
    1       -9.261052   1.000000
    2        5.899567   1.000000
    3        5.899567   1.000000
    4        5.899567   1.000000
    5        9.137426   0.000000
    6        9.137426   0.000000
    7        9.137426   0.000000
    8       10.290765   0.000000
 
  0.4347826E-01  0.0000000E+00  0.0000000E+00  0.6575162E-03
    1       -9.230627   1.000000
    2        5.573017   1.000000
    3        5.836953   1.000000
    4        5.836953   1.000000
    5        9.208457   0.000000
    6        9.219580   0.000000
    7        9.219580   0.000000
    8       10.476046   0.000000
 
  0.8695652E-01  0.0000000E+00  0.0000000E+00  0.6575162E-03
    1       -9.139563   1.000000
    2        4.796975   1.000000
    3        5.670118   1.000000
    4        5.670118   1.000000
    5        9.248057   0.000000
    6        9.439852   0.000000
    7        9.439852   0.000000
    8       11.008676   0.000000
 
  0.1304348E+00  0.0000000E+00  0.0000000E+00  0.6575162E-03
    1       -8.988758   1.000000
    2        3.834093   1.000000
    3        5.442758   1.000000
    4        5.442758   1.000000
    5        9.183751   0.000000
    6        9.739318   0.000000
    7        9.739318   0.000000
    8       11.718676   0.000000
 
  0.1739130E+00  0.0000000E+00  0.0000000E+00  0.6575162E-03
    1       -8.779774   1.000000
    2        2.812229   1.000000
    3        5.193789   1.000000
    4        5.193789   1.000000
    5        9.068031   0.000000
    6       10.054560   0.000000
    7       10.054560   0.000000
    8       12.454703   0.000000
 
  0.2173913E+00  0.0000000E+00  0.0000000E+00  0.6575162E-03
    1       -8.515352   1.000000
    2        1.789645   1.000000
    3        4.949300   1.000000
    4        4.949300   1.000000
    5        8.937078   0.000000
    6       10.330721   0.000000
    7       10.330721   0.000000
    8       13.149516   0.000000
 
  0.2608696E+00  0.0000000E+00  0.0000000E+00  0.6575162E-03
    1       -8.200045   1.000000
    2        0.798499   1.000000
    3        4.725008   1.000000
    4        4.725008   1.000000
    5        8.809840   0.000000
    6       10.530190   0.000000
    7       10.530190   0.000000
    8       13.761838   0.000000
 
  0.3043478E+00  0.0000000E+00  0.0000000E+00  0.6575162E-03
    1       -7.841644   1.000000
    2       -0.137812   1.000000
    3        4.530163   1.000000
    4        4.530163   1.000000
    5        8.696456   0.000000
    6       10.642013   0.000000
    7       10.642013   0.000000
    8       14.240845   0.000000
 
  0.3478261E+00  0.0000000E+00  0.0000000E+00  0.6575162E-03
    1       -7.454125   1.000000
    2       -0.995883   1.000000
    3        4.370165   1.000000
    4        4.370165   1.000000
    5        8.602458   0.000000
    6       10.681561   0.000000
    7       10.681561   0.000000
    8       14.538938   0.000000
 
  0.3913043E+00  0.0000000E+00  0.0000000E+00  0.6575162E-03
    1       -7.063562   1.000000
    2       -1.743612   1.000000
    3        4.248280   1.000000
    4        4.248280   1.000000
    5        8.530625   0.000000
    6       10.677737   0.000000
    7       10.677737   0.000000
    8       14.669469   0.000000
 
  0.4347826E+00  0.0000000E+00  0.0000000E+00  0.6575162E-03
    1       -6.719410   1.000000
    2       -2.327748   1.000000
    3        4.166249   1.000000
    4        4.166249   1.000000
    5        8.482329   0.000000
    6       10.658584   0.000000
    7       10.658584   0.000000
    8       14.703776   0.000000
 
  0.4782609E+00  0.0000000E+00  0.0000000E+00  0.6575162E-03
    1       -6.504584   1.000000
    2       -2.663094   1.000000
    3        4.125039   1.000000
    4        4.125039   1.000000
    5        8.458079   0.000000
    6       10.644057   0.000000
    7       10.644057   0.000000
    8       14.705672   0.000000
 
  0.4347826E-01  0.4347826E-01  0.0000000E+00  0.4931372E-03
    1       -9.220475   1.000000
    2        5.679252   1.000000
    3        5.707571   1.000000
    4        5.707571   1.000000
    5        9.014123   0.000000
    6        9.373653   0.000000
    7        9.373653   0.000000
    8       10.504375   0.000000
 
  0.8695652E-01  0.4347826E-01  0.0000000E+00  0.1972549E-02
    1       -9.149591   1.000000
    2        5.045817   1.000000
    3        5.494563   1.000000
    4        5.669427   1.000000
    5        8.998981   0.000000
    6        9.550008   0.000000
    7        9.647287   0.000000
    8       10.878090   0.000000
 
  0.1304348E+00  0.4347826E-01  0.0000000E+00  0.1972549E-02
    1       -9.018662   1.000000
    2        4.144618   1.000000
    3        5.241791   1.000000
    4        5.525966   1.000000
    5        9.104305   0.000000
    6        9.618471   0.000000
    7        9.982743   0.000000
    8       11.511988   0.000000
 
  0.1739130E+00  0.4347826E-01  0.0000000E+00  0.1972549E-02
    1       -8.828958   1.000000
    2        3.147349   1.000000
    3        4.982759   1.000000
    4        5.310784   1.000000
    5        9.161722   0.000000
    6        9.743472   0.000000
    7       10.322931   0.000000
    8       12.204340   0.000000
 
  0.2173913E+00  0.4347826E-01  0.0000000E+00  0.1972549E-02
    1       -8.582820   1.000000
    2        2.129775   1.000000
    3        4.738982   1.000000
    4        5.065791   1.000000
    5        9.103016   0.000000
    6        9.973835   0.000000
    7       10.616796   0.000000
    8       12.854170   0.000000
 
  0.2608696E+00  0.4347826E-01  0.0000000E+00  0.1972549E-02
    1       -8.284055   1.000000
    2        1.131636   1.000000
    3        4.523420   1.000000
    4        4.819044   1.000000
    5        8.998666   0.000000
    6       10.204151   0.000000
    7       10.825869   0.000000
    8       13.429019   0.000000
 
  0.3043478E+00  0.4347826E-01  0.0000000E+00  0.1972549E-02
    1       -7.939189   1.000000
    2        0.179152   1.000000
    3        4.343676   1.000000
    4        4.587537   1.000000
    5        8.890268   0.000000
    6       10.371847   0.000000
    7       10.935303   0.000000
    8       13.921200   0.000000
 
  0.3478261E+00  0.4347826E-01  0.0000000E+00  0.1972549E-02
    1       -7.559656   1.000000
    2       -0.704584   1.000000
    3        4.204171   1.000000
    4        4.381368   1.000000
    5        8.793799   0.000000
    6       10.467797   0.000000
    7       10.957493   0.000000
    8       14.313866   0.000000
 
  0.3913043E+00  0.4347826E-01  0.0000000E+00  0.1972549E-02
    1       -7.166556   1.000000
    2       -1.491117   1.000000
    3        4.107193   1.000000
    4        4.206778   1.000000
    5        8.716178   0.000000
    6       10.513288   0.000000
    7       10.921581   0.000000
    8       14.576667   0.000000
 
  0.4347826E+00  0.4347826E-01  0.0000000E+00  0.1972549E-02
    1       -6.799981   1.000000
    2       -2.135732   1.000000
    3        4.053748   1.000000
    4        4.067838   1.000000
    5        8.660597   0.000000
    6       10.537542   0.000000
    7       10.858579   0.000000
    8       14.712435   0.000000
 
  0.4782609E+00  0.4347826E-01  0.0000000E+00  0.1972549E-02
    1       -6.531646   1.000000
    2       -2.563823   1.000000
    3        3.967362   1.000000
    4        4.043836   1.000000
    5        8.628497   0.000000
    6       10.563956   0.000000
    7       10.792190   0.000000
    8       14.766668   0.000000
 
 -0.4782609E+00  0.4347826E-01  0.0000000E+00  0.1972549E-02
    1       -6.454376   1.000000
    2       -2.681083   1.000000
    3        3.907449   1.000000
    4        4.076839   1.000000
    5        8.620433   0.000000
    6       10.605900   0.000000
    7       10.736282   0.000000
    8       14.781437   0.000000
 
 -0.4347826E+00  0.4347826E-01  0.0000000E+00  0.1972549E-02
    1       -6.604452   1.000000
    2       -2.450856   1.000000
    3        3.889632   1.000000
    4        4.151558   1.000000
    5        8.636521   0.000000
    6       10.666494   0.000000
    7       10.694638   0.000000
    8       14.769142   0.000000
 
 -0.3913043E+00  0.4347826E-01  0.0000000E+00  0.1972549E-02
    1       -6.915728   1.000000
    2       -1.940044   1.000000
    3        3.914926   1.000000
    4        4.266276   1.000000
    5        8.676544   0.000000
    6       10.661205   0.000000
    7       10.738673   0.000000
    8       14.708855   0.000000
 
 -0.3478261E+00  0.4347826E-01  0.0000000E+00  0.1972549E-02
    1       -7.297342   1.000000
    2       -1.241431   1.000000
    3        3.983871   1.000000
    4        4.418589   1.000000
    5        8.739910   0.000000
    6       10.619957   0.000000
    7       10.804731   0.000000
    8       14.551686   0.000000
 
 -0.3043478E+00  0.4347826E-01  0.0000000E+00  0.1972549E-02
    1       -7.689154   1.000000
    2       -0.418596   1.000000
    3        4.096334   1.000000
    4        4.605222   1.000000
    5        8.825233   0.000000
    6       10.546444   0.000000
    7       10.835987   0.000000
    8       14.252578   0.000000
 
 -0.2608696E+00  0.4347826E-01  0.0000000E+00  0.1972549E-02
    1       -8.058853   1.000000
    2        0.490636   1.000000
    3        4.251216   1.000000
    4        4.821216   1.000000
    5        8.929688   0.000000
    6       10.414032   0.000000
    7       10.796442   0.000000
    8       13.815858   0.000000
 
 -0.2173913E+00  0.4347826E-01  0.0000000E+00  0.1972549E-02
    1       -8.389277   1.000000
    2        1.460403   1.000000
    3        4.446073   1.000000
    4        5.058989   1.000000
    5        9.047700   0.000000
    6       10.207510   0.000000
    7       10.656229   0.000000
    8       13.279877   0.000000
 
 -0.1739130E+00  0.4347826E-01  0.0000000E+00  0.1972549E-02
    1       -8.671045   1.000000
    2        2.466892   1.000000
    3        4.676399   1.000000
    4        5.306252   1.000000
    5        9.168561   0.000000
    6        9.937267   0.000000
    7       10.411967   0.000000
    8       12.671346   0.000000
 
 -0.1304348E+00  0.4347826E-01  0.0000000E+00  0.1972549E-02
    1       -8.898678   1.000000
    2        3.479151   1.000000
    3        4.934930   1.000000
    4        5.542835   1.000000
    5        9.271045   0.000000
    6        9.642502   0.000000
    7       10.097214   0.000000
    8       12.006797   0.000000
 
 -0.8695652E-01  0.4347826E-01  0.0000000E+00  0.1972549E-02
    1       -9.068969   1.000000
    2        4.441955   1.000000
    3        5.212249   1.000000
    4        5.737053   1.000000
    5        9.312344   0.000000
    6        9.382699   0.000000
    7        9.775336   0.000000
    8       11.329765   0.000000
 
 -0.4347826E-01  0.4347826E-01  0.0000000E+00  0.9862743E-03
    1       -9.179967   1.000000
    2        5.216983   1.000000
    3        5.519513   1.000000
    4        5.846782   1.000000
    5        9.224665   0.000000
    6        9.248552   0.000000
    7        9.498396   0.000000
    8       10.762209   0.000000
 
  0.8695652E-01  0.8695652E-01  0.0000000E+00  0.4931372E-03
    1       -9.098960   1.000000
    2        5.107205   1.000000
    3        5.251437   1.000000
    4        5.251437   1.000000
    5        8.742957   0.000000
    6        9.961305   0.000000
    7        9.961305   0.000000
    8       10.949944   0.000000
 
  0.1304348E+00  0.8695652E-01  0.0000000E+00  0.1972549E-02
    1       -8.988110   1.000000
    2        4.373044   1.000000
    3        4.981459   1.000000
    4        5.185185   1.000000
    5        8.695477   0.000000
    6       10.151733   0.000000
    7       10.328929   0.000000
    8       11.362958   0.000000
 
  0.1739130E+00  0.8695652E-01  0.0000000E+00  0.1972549E-02
    1       -8.818111   1.000000
    2        3.441970   1.000000
    3        4.714109   1.000000
    4        5.046477   1.000000
    5        8.814301   0.000000
    6       10.148508   0.000000
    7       10.698533   0.000000
    8       11.939307   0.000000
 
  0.2173913E+00  0.8695652E-01  0.0000000E+00  0.1972549E-02
    1       -8.590940   1.000000
    2        2.457428   1.000000
    3        4.468291   1.000000
    4        4.829865   1.000000
    5        8.987945   0.000000
    6       10.134420   0.000000
    7       11.021453   0.000000
    8       12.452987   0.000000
 
  0.2608696E+00  0.8695652E-01  0.0000000E+00  0.1972549E-02
    1       -8.309820   1.000000
    2        1.471976   1.000000
    3        4.255672   1.000000
    4        4.578461   1.000000
    5        9.102516   0.000000
    6       10.186423   0.000000
    7       11.256932   0.000000
    8       12.867024   0.000000
 
  0.3043478E+00  0.8695652E-01  0.0000000E+00  0.1972549E-02
    1       -7.980254   1.000000
    2        0.517959   1.000000
    3        4.083285   1.000000
    4        4.321955   1.000000
    5        9.120918   0.000000
    6       10.289614   0.000000
    7       11.383894   0.000000
    8       13.249569   0.000000
 
  0.3478261E+00  0.8695652E-01  0.0000000E+00  0.1972549E-02
    1       -7.611682   1.000000
    2       -0.379336   1.000000
    3        3.955272   1.000000
    4        4.078398   1.000000
    5        9.083098   0.000000
    6       10.380669   0.000000
    7       11.408730   0.000000
    8       13.666896   0.000000
 
  0.3913043E+00  0.8695652E-01  0.0000000E+00  0.1972549E-02
    1       -7.221285   1.000000
    2       -1.192981   1.000000
    3        3.858894   1.000000
    4        3.873757   1.000000
    5        9.030996   0.000000
    6       10.434971   0.000000
    7       11.358753   0.000000
    8       14.109722   0.000000
 
  0.4347826E+00  0.8695652E-01  0.0000000E+00  0.1972549E-02
    1       -6.841407   1.000000
    2       -1.884449   1.000000
    3        3.670629   1.000000
    4        3.839534   1.000000
    5        8.986775   0.000000
    6       10.467764   0.000000
    7       11.266882   0.000000
    8       14.505372   0.000000
 
  0.4782609E+00  0.8695652E-01  0.0000000E+00  0.1972549E-02
    1       -6.532004   1.000000
    2       -2.389910   1.000000
    3        3.518677   1.000000
    4        3.852308   1.000000
    5        8.960410   0.000000
    6       10.502509   0.000000
    7       11.160353   0.000000
    8       14.780974   0.000000
 
 -0.4782609E+00  0.8695652E-01  0.0000000E+00  0.1972549E-02
    1       -6.383331   1.000000
    2       -2.616997   1.000000
    3        3.406807   1.000000
    4        3.910918   1.000000
    5        8.955863   0.000000
    6       10.555930   0.000000
    7       11.056548   0.000000
    8       14.917896   0.000000
 
 -0.4347826E+00  0.8695652E-01  0.0000000E+00  0.1972549E-02
    1       -6.460658   1.000000
    2       -2.499571   1.000000
    3        3.337984   1.000000
    4        4.013447   1.000000
    5        8.974134   0.000000
    6       10.635341   0.000000
    7       10.962747   0.000000
    8       14.929816   0.000000
 
 -0.3913043E+00  0.8695652E-01  0.0000000E+00  0.1972549E-02
    1       -6.727825   1.000000
    2       -2.074312   1.000000
    3        3.314591   1.000000
    4        4.157113   1.000000
    5        9.014713   0.000000
    6       10.738423   0.000000
    7       10.876205   0.000000
    8       14.813228   0.000000
 
 -0.3478261E+00  0.8695652E-01  0.0000000E+00  0.1972549E-02
    1       -7.092758   1.000000
    2       -1.435058   1.000000
    3        3.338435   1.000000
    4        4.338189   1.000000
    5        9.076217   0.000000
    6       10.784447   0.000000
    7       10.851834   0.000000
    8       14.550362   0.000000
 
 -0.3043478E+00  0.8695652E-01  0.0000000E+00  0.1972549E-02
    1       -7.484261   1.000000
    2       -0.656599   1.000000
    3        3.410832   1.000000
    4        4.551568   1.000000
    5        9.156394   0.000000
    6       10.666517   0.000000
    7       10.948034   0.000000
    8       14.156104   0.000000
 
 -0.2608696E+00  0.8695652E-01  0.0000000E+00  0.1972549E-02
    1       -7.862389   1.000000
    2        0.215174   1.000000
    3        3.532745   1.000000
    4        4.790021   1.000000
    5        9.251301   0.000000
    6       10.499117   0.000000
    7       10.982491   0.000000
    8       13.694587   0.000000
 
 -0.2173913E+00  0.8695652E-01  0.0000000E+00  0.1972549E-02
    1       -8.206095   1.000000
    2        1.148953   1.000000
    3        3.705201   1.000000
    4        5.042965   1.000000
    5        9.353474   0.000000
    6       10.269963   0.000000
    7       10.901863   0.000000
    8       13.233938   0.000000
 
 -0.1739130E+00  0.8695652E-01  0.0000000E+00  0.1972549E-02
    1       -8.503908   1.000000
    2        2.114697   1.000000
    3        3.931035   1.000000
    4        5.294114   1.000000
    5        9.447975   0.000000
    6        9.992562   0.000000
    7       10.680796   0.000000
    8       12.791678   0.000000
 
 -0.1304348E+00  0.8695652E-01  0.0000000E+00  0.1972549E-02
    1       -8.749310   1.000000
    2        3.065744   1.000000
    3        4.222674   1.000000
    4        5.518238   1.000000
    5        9.502967   0.000000
    6        9.709991   0.000000
    7       10.363694   0.000000
    8       12.326463   0.000000
 
 -0.8695652E-01  0.8695652E-01  0.0000000E+00  0.9862743E-03
    1       -8.938432   1.000000
    2        3.892997   1.000000
    3        4.633663   1.000000
    4        5.679258   1.000000
    5        9.459104   0.000000
    6        9.485254   0.000000
    7       10.050410   0.000000
    8       11.814242   0.000000
 
  0.1304348E+00  0.1304348E+00  0.0000000E+00  0.4931372E-03
    1       -8.897366   1.000000
    2        4.333381   1.000000
    3        4.700080   1.000000
    4        4.700080   1.000000
    5        8.416804   0.000000
    6       10.728532   0.000000
    7       10.728532   0.000000
    8       11.321727   0.000000
 
  0.1739130E+00  0.1304348E+00  0.0000000E+00  0.1972549E-02
    1       -8.747313   1.000000
    2        3.621053   1.000000
    3        4.425173   1.000000
    4        4.567036   1.000000
    5        8.362399   0.000000
    6       10.855566   0.000000
    7       11.133503   0.000000
    8       11.662908   0.000000
 
  0.2173913E+00  0.1304348E+00  0.0000000E+00  0.1972549E-02
    1       -8.539581   1.000000
    2        2.721072   1.000000
    3        4.174700   1.000000
    4        4.402216   1.000000
    5        8.492043   0.000000
    6       10.775484   0.000000
    7       11.496601   0.000000
    8       12.051415   0.000000
 
  0.2608696E+00  0.1304348E+00  0.0000000E+00  0.1972549E-02
    1       -8.276952   1.000000
    2        1.781804   1.000000
    3        3.960002   1.000000
    4        4.164759   1.000000
    5        8.699704   0.000000
    6       10.722016   0.000000
    7       11.774507   0.000000
    8       12.294251   0.000000
 
  0.3043478E+00  0.1304348E+00  0.0000000E+00  0.1972549E-02
    1       -7.964090   1.000000
    2        0.850250   1.000000
    3        3.788120   1.000000
    4        3.894124   1.000000
    5        8.878728   0.000000
    6       10.731999   0.000000
    7       11.938716   0.000000
    8       12.497812   0.000000
 
  0.3478261E+00  0.1304348E+00  0.0000000E+00  0.1972549E-02
    1       -7.608893   1.000000
    2       -0.042199   1.000000
    3        3.620009   1.000000
    4        3.663356   1.000000
    5        8.978610   0.000000
    6       10.773918   0.000000
    7       11.987187   0.000000
    8       12.800451   0.000000
 
  0.3913043E+00  0.1304348E+00  0.0000000E+00  0.1972549E-02
    1       -7.225481   1.000000
    2       -0.867191   1.000000
    3        3.360907   1.000000
    4        3.588007   1.000000
    5        9.016118   0.000000
    6       10.798776   0.000000
    7       11.942833   0.000000
    8       13.257492   0.000000
 
  0.4347826E+00  0.1304348E+00  0.0000000E+00  0.1972549E-02
    1       -6.840035   1.000000
    2       -1.589529   1.000000
    3        3.128421   1.000000
    4        3.562936   1.000000
    5        9.029956   0.000000
    6       10.799500   0.000000
    7       11.839238   0.000000
    8       13.822142   0.000000
 
  0.4782609E+00  0.1304348E+00  0.0000000E+00  0.1972549E-02
    1       -6.501760   1.000000
    2       -2.154389   1.000000
    3        2.930456   1.000000
    4        3.587954   1.000000
    5        9.048340   0.000000
    6       10.796497   0.000000
    7       11.706974   0.000000
    8       14.390907   0.000000
 
 -0.4782609E+00  0.1304348E+00  0.0000000E+00  0.1972549E-02
    1       -6.292181   1.000000
    2       -2.476948   1.000000
    3        2.772679   1.000000
    4        3.661815   1.000000
    5        9.085245   0.000000
    6       10.809451   0.000000
    7       11.566976   0.000000
    8       14.833149   0.000000
 
 -0.4347826E+00  0.1304348E+00  0.0000000E+00  0.1972549E-02
    1       -6.293977   1.000000
    2       -2.473045   1.000000
    3        2.659504   1.000000
    4        3.782310   1.000000
    5        9.144991   0.000000
    6       10.850649   0.000000
    7       11.429567   0.000000
    8       15.027005   0.000000
 
 -0.3913043E+00  0.1304348E+00  0.0000000E+00  0.1972549E-02
    1       -6.506180   1.000000
    2       -2.143867   1.000000
    3        2.594538   1.000000
    4        3.946104   1.000000
    5        9.226021   0.000000
    6       10.924840   0.000000
    7       11.294636   0.000000
    8       14.922269   0.000000
 
 -0.3478261E+00  0.1304348E+00  0.0000000E+00  0.1972549E-02
    1       -6.845455   1.000000
    2       -1.574718   1.000000
    3        2.580995   1.000000
    4        4.148562   1.000000
    5        9.323511   0.000000
    6       11.027849   0.000000
    7       11.152152   0.000000
    8       14.562607   0.000000
 
 -0.3043478E+00  0.1304348E+00  0.0000000E+00  0.1972549E-02
    1       -7.230870   1.000000
    2       -0.851028   1.000000
    3        2.622197   1.000000
    4        4.383152   1.000000
    5        9.430868   0.000000
    6       10.983795   0.000000
    7       11.140938   0.000000
    8       14.054191   0.000000
 
 -0.2608696E+00  0.1304348E+00  0.0000000E+00  0.1972549E-02
    1       -7.613771   1.000000
    2       -0.029982   1.000000
    3        2.722684   1.000000
    4        4.640602   1.000000
    5        9.539651   0.000000
    6       10.769691   0.000000
    7       11.219416   0.000000
    8       13.518890   0.000000
 
 -0.2173913E+00  0.1304348E+00  0.0000000E+00  0.1972549E-02
    1       -7.968275   1.000000
    2        0.845443   1.000000
    3        2.891587   1.000000
    4        4.907450   1.000000
    5        9.636956   0.000000
    6       10.502446   0.000000
    7       11.182937   0.000000
    8       13.074847   0.000000
 
 -0.1739130E+00  0.1304348E+00  0.0000000E+00  0.1972549E-02
    1       -8.280395   1.000000
    2        1.722578   1.000000
    3        3.153548   1.000000
    4        5.163665   1.000000
    5        9.697881   0.000000
    6       10.201701   0.000000
    7       10.967529   0.000000
    8       12.789340   0.000000
 
 -0.1304348E+00  0.1304348E+00  0.0000000E+00  0.9862743E-03
    1       -8.542290   1.000000
    2        2.500507   1.000000
    3        3.576566   1.000000
    4        5.379952   1.000000
    5        9.671710   0.000000
    6        9.915964   0.000000
    7       10.647528   0.000000
    8       12.583304   0.000000
 
  0.1739130E+00  0.1739130E+00  0.0000000E+00  0.4931372E-03
    1       -8.617220   1.000000
    2        3.457089   1.000000
    3        4.143120   1.000000
    4        4.143120   1.000000
    5        8.081295   0.000000
    6       11.324580   0.000000
    7       11.581500   0.000000
    8       11.581500   0.000000
 
  0.2173913E+00  0.1739130E+00  0.0000000E+00  0.1972549E-02
    1       -8.429202   1.000000
    2        2.805731   1.000000
    3        3.886076   1.000000
    4        3.944474   1.000000
    5        8.035755   0.000000
    6       11.113669   0.000000
    7       11.996159   0.000000
    8       12.013587   0.000000
 
  0.2608696E+00  0.1739130E+00  0.0000000E+00  0.1972549E-02
    1       -8.185685   1.000000
    2        1.982461   1.000000
    3        3.665665   1.000000
    4        3.723045   1.000000
    5        8.180245   0.000000
    6       10.959306   0.000000
    7       12.228465   0.000000
    8       12.331951   0.000000
 
  0.3043478E+00  0.1739130E+00  0.0000000E+00  0.1972549E-02
    1       -7.890648   1.000000
    2        1.118418   1.000000
    3        3.442974   1.000000
    4        3.489286   1.000000
    5        8.401093   0.000000
    6       10.943926   0.000000
    7       12.286942   0.000000
    8       12.552806   0.000000
 
  0.3478261E+00  0.1739130E+00  0.0000000E+00  0.1972549E-02
    1       -7.550817   1.000000
    2        0.263474   1.000000
    3        3.138544   1.000000
    4        3.361555   1.000000
    5        8.588516   0.000000
    6       11.090633   0.000000
    7       12.323431   0.000000
    8       12.646177   0.000000
 
  0.3913043E+00  0.1739130E+00  0.0000000E+00  0.1972549E-02
    1       -7.177942   1.000000
    2       -0.547338   1.000000
    3        2.838144   1.000000
    4        3.285081   1.000000
    5        8.700932   0.000000
    6       11.304898   0.000000
    7       12.495370   0.000000
    8       12.627661   0.000000
 
  0.4347826E+00  0.1739130E+00  0.0000000E+00  0.1972549E-02
    1       -6.793434   1.000000
    2       -1.278181   1.000000
    3        2.559879   1.000000
    4        3.261025   1.000000
    5        8.764747   0.000000
    6       11.424677   0.000000
    7       12.529954   0.000000
    8       12.935028   0.000000
 
  0.4782609E+00  0.1739130E+00  0.0000000E+00  0.1972549E-02
    1       -6.437451   1.000000
    2       -1.879884   1.000000
    3        2.315267   1.000000
    4        3.289405   1.000000
    5        8.820146   0.000000
    6       11.446274   0.000000
    7       12.386418   0.000000
    8       13.580390   0.000000
 
 -0.4782609E+00  0.1739130E+00  0.0000000E+00  0.1972549E-02
    1       -6.180307   1.000000
    2       -2.276676   1.000000
    3        2.112194   1.000000
    4        3.369093   1.000000
    5        8.892824   0.000000
    6       11.438914   0.000000
    7       12.221747   0.000000
    8       14.274635   0.000000
 
 -0.4347826E+00  0.1739130E+00  0.0000000E+00  0.1972549E-02
    1       -6.110219   1.000000
    2       -2.377725   1.000000
    3        1.956617   1.000000
    4        3.497884   1.000000
    5        8.993880   0.000000
    6       11.440036   0.000000
    7       12.049167   0.000000
    8       14.820824   0.000000
 
 -0.3913043E+00  0.1739130E+00  0.0000000E+00  0.1972549E-02
    1       -6.259049   1.000000
    2       -2.150950   1.000000
    3        1.853631   1.000000
    4        3.672302   1.000000
    5        9.124444   0.000000
    6       11.465699   0.000000
    7       11.870522   0.000000
    8       14.935761   0.000000
 
 -0.3478261E+00  0.1739130E+00  0.0000000E+00  0.1972549E-02
    1       -6.562846   1.000000
    2       -1.663172   1.000000
    3        1.808505   1.000000
    4        3.887267   1.000000
    5        9.278585   0.000000
    6       11.521409   0.000000
    7       11.676980   0.000000
    8       14.568218   0.000000
 
 -0.3043478E+00  0.1739130E+00  0.0000000E+00  0.1972549E-02
    1       -6.935065   1.000000
    2       -1.008183   1.000000
    3        1.828349   1.000000
    4        4.135477   1.000000
    5        9.444472   0.000000
    6       11.451569   0.000000
    7       11.601209   0.000000
    8       13.974296   0.000000
 
 -0.2608696E+00  0.1739130E+00  0.0000000E+00  0.1972549E-02
    1       -7.317963   1.000000
    2       -0.260208   1.000000
    3        1.926425   1.000000
    4        4.406411   1.000000
    5        9.604340   0.000000
    6       11.177644   0.000000
    7       11.671378   0.000000
    8       13.356789   0.000000
 
 -0.2173913E+00  0.1739130E+00  0.0000000E+00  0.1972549E-02
    1       -7.679882   1.000000
    2        0.510765   1.000000
    3        2.134006   1.000000
    4        4.684629   1.000000
    5        9.732019   0.000000
    6       10.854564   0.000000
    7       11.623624   0.000000
    8       12.897832   0.000000
 
 -0.1739130E+00  0.1739130E+00  0.0000000E+00  0.9862743E-03
    1       -8.003875   1.000000
    2        1.203396   1.000000
    3        2.522385   1.000000
    4        4.947611   1.000000
    5        9.784988   0.000000
    6       10.510905   0.000000
    7       11.336370   0.000000
    8       12.754881   0.000000
 
  0.2173913E+00  0.2173913E+00  0.0000000E+00  0.4931372E-03
    1       -8.260964   1.000000
    2        2.530242   1.000000
    3        3.621356   1.000000
    4        3.621357   1.000000
    5        7.768120   0.000000
    6       10.870948   0.000000
    7       12.474095   0.000000
    8       12.474095   0.000000
 
  0.2608696E+00  0.2173913E+00  0.0000000E+00  0.1972549E-02
    1       -8.036945   1.000000
    2        1.937504   1.000000
    3        3.381055   1.000000
    4        3.392865   1.000000
    5        7.742295   0.000000
    6       10.592962   0.000000
    7       12.814958   0.000000
    8       12.883134   0.000000
 
  0.3043478E+00  0.2173913E+00  0.0000000E+00  0.1972549E-02
    1       -7.760611   1.000000
    2        1.214918   1.000000
    3        3.089448   1.000000
    4        3.208634   1.000000
    5        7.904961   0.000000
    6       10.443405   0.000000
    7       12.935766   0.000000
    8       13.180351   0.000000
 