       N       E                     dE             d eps       ncg     rms          rms(c)
DAV:   1     0.947221649914E+01    0.94722E+01   -0.38957E+03  5840   0.867E+02
DAV:   2    -0.117347325856E+02   -0.21207E+02   -0.20306E+02  9088   0.103E+02
DAV:   3    -0.119934357604E+02   -0.25870E+00   -0.25870E+00  6808   0.136E+01
DAV:   4    -0.119937292877E+02   -0.29353E-03   -0.29353E-03  8696   0.490E-01
DAV:   5    -0.119937294272E+02   -0.13946E-06   -0.13945E-06  6800   0.721E-03    0.389E+00
RMM:   6    -0.114365657641E+02    0.55716E+00   -0.61905E-01  5824   0.518E+00    0.165E+00
RMM:   7    -0.113808358848E+02    0.55730E-01   -0.10076E-01  5824   0.210E+00    0.731E-01
RMM:   8    -0.113744494408E+02    0.63864E-02   -0.21204E-02  5824   0.111E+00    0.830E-02
RMM:   9    -0.113747576977E+02   -0.30826E-03   -0.70127E-04  5824   0.202E-01    0.359E-02
RMM:  10    -0.113747765044E+02   -0.18807E-04   -0.77172E-05  5824   0.759E-02    0.125E-02
RMM:  11    -0.113747794500E+02   -0.29456E-05   -0.52228E-05  5824   0.451E-02    0.112E-02
RMM:  12    -0.113747724640E+02    0.69860E-05   -0.96185E-06  5781   0.204E-02    0.323E-04
RMM:  13    -0.113747724900E+02   -0.25999E-07   -0.12462E-07  3783   0.276E-03
   1 F= -.11374772E+02 E0= -.11374772E+02  d E =-.113748E+02
       N       E                     dE             d eps       ncg     rms          rms(c)
DAV:   1    -0.113747845119E+02   -0.12048E-04   -0.11078E-04  8424   0.804E-02    0.771E-03
RMM:   2    -0.113747818571E+02    0.26548E-05   -0.19344E-06  3661   0.110E-02    0.391E-03
RMM:   3    -0.113747808277E+02    0.10294E-05   -0.11067E-06  3197   0.734E-03    0.111E-03
RMM:   4    -0.113747806305E+02    0.19720E-06   -0.11389E-07  2918   0.287E-03    0.131E-04
RMM:   5    -0.113747806476E+02   -0.17062E-07    0.00000E+00  1150   0.707E-04
   2 F= -.11374781E+02 E0= -.11374781E+02  d E =-.815759E-05
