unknown system                          
           1
     0.000000    2.408327    2.408327
     2.408327    0.000000    2.408327
     2.408327    2.408327    0.000000
   B    As
   1   1
Direct configuration=     1
   0.25000000  0.25000000  0.25000000
   0.00000000  0.00000000  0.00000000
unknown system                          
           1
     0.000000    2.408819    2.408819
     2.408819    0.000000    2.408819
     2.408819    2.408819   -0.000000
   B    As
   1   1
Direct configuration=     2
   0.25000000  0.25000000  0.25000000
  -0.00000000 -0.00000000 -0.00000000
