   2   2   0   0
  0.2420320E+02  0.4090778E-09  0.4090778E-09  0.4090778E-09  0.0000000E+00
  1.000000000000000E-004
  CAR 
 unknown system                          
     17.45299394     -6.24446506  301      6.72001980      1.00000000
     -6.244  0.0000E+00  0.0000E+00
     -6.165  0.0000E+00  0.0000E+00
     -6.086  0.0000E+00  0.0000E+00
     -6.007  0.0000E+00  0.0000E+00
     -5.928  0.0000E+00  0.0000E+00
     -5.850  0.0000E+00  0.0000E+00
     -5.771  0.0000E+00  0.0000E+00
     -5.692  0.0000E+00  0.0000E+00
     -5.613  0.0000E+00  0.0000E+00
     -5.534  0.0000E+00  0.0000E+00
     -5.455  0.0000E+00  0.0000E+00
     -5.376  0.0000E+00  0.0000E+00
     -5.297  0.0000E+00  0.0000E+00
     -5.218  0.0000E+00  0.0000E+00
     -5.139  0.6814E-01  0.6524E-03
     -5.060  0.1360E+00  0.8628E-02
     -4.981  0.1830E+00  0.2099E-01
     -4.902  0.2172E+00  0.3687E-01
     -4.823  0.2568E+00  0.5558E-01
     -4.744  0.2841E+00  0.7689E-01
     -4.665  0.3163E+00  0.1006E+00
     -4.586  0.3435E+00  0.1267E+00
     -4.507  0.3716E+00  0.1549E+00
     -4.428  0.4017E+00  0.1855E+00
     -4.349  0.4281E+00  0.2182E+00
     -4.270  0.4566E+00  0.2531E+00
     -4.191  0.4870E+00  0.2904E+00
     -4.112  0.5169E+00  0.3300E+00
     -4.033  0.5489E+00  0.3721E+00
     -3.954  0.5836E+00  0.4168E+00
     -3.875  0.6209E+00  0.4644E+00
     -3.796  0.6627E+00  0.5151E+00
     -3.717  0.7091E+00  0.5692E+00
     -3.638  0.7616E+00  0.6272E+00
     -3.559  0.8291E+00  0.6900E+00
     -3.480  0.9158E+00  0.7587E+00
     -3.401  0.1043E+01  0.8356E+00
     -3.322  0.1249E+01  0.9276E+00
     -3.243  0.1288E+01  0.1030E+01
     -3.164  0.1246E+01  0.1130E+01
     -3.085  0.1247E+01  0.1229E+01
     -3.006  0.1233E+01  0.1327E+01
     -2.927  0.1217E+01  0.1424E+01
     -2.848  0.1232E+01  0.1520E+01
     -2.769  0.1240E+01  0.1618E+01
     -2.690  0.1278E+01  0.1717E+01
     -2.611  0.1388E+01  0.1821E+01
     -2.532  0.2153E+01  0.1945E+01
     -2.453  0.0000E+00  0.2000E+01
     -2.374  0.0000E+00  0.2000E+01
     -2.295  0.0000E+00  0.2000E+01
     -2.216  0.0000E+00  0.2000E+01
     -2.137  0.0000E+00  0.2000E+01
     -2.058  0.0000E+00  0.2000E+01
     -1.979  0.0000E+00  0.2000E+01
     -1.900  0.0000E+00  0.2000E+01
     -1.821  0.0000E+00  0.2000E+01
     -1.742  0.0000E+00  0.2000E+01
     -1.663  0.0000E+00  0.2000E+01
     -1.584  0.0000E+00  0.2000E+01
     -1.505  0.0000E+00  0.2000E+01
     -1.426  0.0000E+00  0.2000E+01
     -1.347  0.0000E+00  0.2000E+01
     -1.268  0.0000E+00  0.2000E+01
     -1.189  0.0000E+00  0.2000E+01
     -1.110  0.0000E+00  0.2000E+01
     -1.031  0.0000E+00  0.2000E+01
     -0.952  0.0000E+00  0.2000E+01
     -0.873  0.0000E+00  0.2000E+01
     -0.794  0.0000E+00  0.2000E+01
     -0.715  0.0000E+00  0.2000E+01
     -0.636  0.0000E+00  0.2000E+01
     -0.557  0.0000E+00  0.2000E+01
     -0.478  0.0000E+00  0.2000E+01
     -0.399  0.0000E+00  0.2000E+01
     -0.320  0.0000E+00  0.2000E+01
     -0.241  0.0000E+00  0.2000E+01
     -0.162  0.0000E+00  0.2000E+01
     -0.083  0.0000E+00  0.2000E+01
     -0.004  0.0000E+00  0.2000E+01
      0.075  0.0000E+00  0.2000E+01
      0.154  0.0000E+00  0.2000E+01
      0.233  0.0000E+00  0.2000E+01
      0.312  0.0000E+00  0.2000E+01
      0.391  0.6378E-01  0.2000E+01
      0.470  0.4275E+00  0.2017E+01
      0.549  0.7063E+00  0.2062E+01
      0.628  0.1071E+01  0.2134E+01
      0.707  0.1568E+01  0.2235E+01
      0.786  0.3153E+01  0.2403E+01
      0.865  0.2187E+01  0.2655E+01
      0.944  0.1503E+01  0.2797E+01
      1.023  0.1153E+01  0.2899E+01
      1.102  0.9892E+00  0.2984E+01
      1.181  0.8315E+00  0.3056E+01
      1.260  0.7493E+00  0.3118E+01
      1.339  0.6830E+00  0.3174E+01
      1.418  0.6164E+00  0.3226E+01
      1.497  0.5548E+00  0.3272E+01
      1.576  0.5216E+00  0.3314E+01
      1.655  0.4880E+00  0.3354E+01
      1.734  0.4547E+00  0.3391E+01
      1.813  0.4147E+00  0.3426E+01
      1.892  0.3913E+00  0.3457E+01
      1.971  0.3728E+00  0.3487E+01
      2.050  0.3545E+00  0.3516E+01
      2.129  0.3327E+00  0.3543E+01
      2.208  0.3118E+00  0.3569E+01
      2.287  0.2898E+00  0.3592E+01
      2.366  0.2785E+00  0.3615E+01
      2.445  0.2672E+00  0.3636E+01
      2.524  0.4749E+00  0.3660E+01
      2.603  0.7600E+00  0.3704E+01
      2.682  0.9096E+00  0.3769E+01
      2.761  0.1286E+01  0.3859E+01
      2.840  0.1198E+01  0.3958E+01
      2.919  0.1108E+01  0.4050E+01
      2.998  0.1061E+01  0.4135E+01
      3.077  0.1017E+01  0.4217E+01
      3.156  0.1028E+01  0.4298E+01
      3.235  0.9887E+00  0.4378E+01
      3.314  0.9594E+00  0.4455E+01
      3.393  0.1008E+01  0.4535E+01
      3.471  0.1050E+01  0.4617E+01
      3.550  0.1120E+01  0.4702E+01
      3.629  0.1147E+01  0.4792E+01
      3.708  0.1184E+01  0.4885E+01
      3.787  0.1241E+01  0.4980E+01
      3.866  0.1314E+01  0.5080E+01
      3.945  0.1470E+01  0.5190E+01
      4.024  0.1609E+01  0.5315E+01
      4.103  0.1564E+01  0.5441E+01
      4.182  0.1556E+01  0.5564E+01
      4.261  0.1525E+01  0.5686E+01
      4.340  0.1510E+01  0.5805E+01
      4.419  0.1493E+01  0.5924E+01
      4.498  0.1461E+01  0.6041E+01
      4.577  0.1427E+01  0.6155E+01
      4.656  0.1416E+01  0.6267E+01
      4.735  0.1401E+01  0.6378E+01
      4.814  0.1378E+01  0.6488E+01
      4.893  0.1360E+01  0.6596E+01
      4.972  0.1348E+01  0.6703E+01
      5.051  0.1317E+01  0.6808E+01
      5.130  0.1298E+01  0.6911E+01
      5.209  0.1295E+01  0.7014E+01
      5.288  0.1277E+01  0.7116E+01
      5.367  0.1273E+01  0.7216E+01
      5.446  0.1257E+01  0.7316E+01
      5.525  0.1237E+01  0.7414E+01
      5.604  0.1029E+01  0.7506E+01
      5.683  0.8577E+00  0.7579E+01
      5.762  0.7526E+00  0.7642E+01
      5.841  0.6636E+00  0.7698E+01
      5.920  0.5942E+00  0.7748E+01
      5.999  0.5348E+00  0.7792E+01
      6.078  0.4795E+00  0.7832E+01
      6.157  0.4269E+00  0.7868E+01
      6.236  0.3767E+00  0.7900E+01
      6.315  0.3246E+00  0.7928E+01
      6.394  0.2954E+00  0.7952E+01
      6.473  0.2332E+00  0.7973E+01
      6.552  0.1691E+00  0.7989E+01
      6.631  0.8703E-01  0.7999E+01
      6.710  0.0000E+00  0.8000E+01
      6.789  0.0000E+00  0.8000E+01
      6.868  0.0000E+00  0.8000E+01
      6.947  0.0000E+00  0.8000E+01
      7.026  0.0000E+00  0.8000E+01
      7.105  0.0000E+00  0.8000E+01
      7.184  0.0000E+00  0.8000E+01
      7.263  0.0000E+00  0.8000E+01
      7.342  0.0000E+00  0.8000E+01
      7.421  0.0000E+00  0.8000E+01
      7.500  0.0000E+00  0.8000E+01
      7.579  0.5904E-01  0.8002E+01
      7.658  0.1244E+00  0.8009E+01
      7.737  0.1738E+00  0.8021E+01
      7.816  0.2243E+00  0.8037E+01
      7.895  0.2810E+00  0.8057E+01
      7.974  0.3250E+00  0.8081E+01
      8.053  0.3968E+00  0.8109E+01
      8.132  0.4674E+00  0.8143E+01
      8.211  0.5065E+00  0.8182E+01
      8.290  0.5535E+00  0.8224E+01
      8.369  0.6005E+00  0.8269E+01
      8.448  0.6523E+00  0.8319E+01
      8.527  0.7045E+00  0.8372E+01
      8.606  0.7607E+00  0.8430E+01
      8.685  0.8432E+00  0.8493E+01
      8.764  0.9500E+00  0.8564E+01
      8.843  0.1041E+01  0.8643E+01
      8.922  0.1138E+01  0.8729E+01
      9.001  0.1245E+01  0.8823E+01
      9.080  0.1417E+01  0.8928E+01
      9.159  0.1697E+01  0.9050E+01
      9.238  0.1786E+01  0.9188E+01
      9.317  0.1753E+01  0.9328E+01
      9.396  0.1719E+01  0.9466E+01
      9.475  0.1638E+01  0.9598E+01
      9.554  0.1651E+01  0.9728E+01
      9.633  0.1592E+01  0.9856E+01
      9.712  0.1354E+01  0.9973E+01
      9.791  0.1236E+01  0.1008E+02
      9.870  0.1123E+01  0.1017E+02
      9.949  0.7122E+00  0.1024E+02
     10.028  0.6115E+00  0.1030E+02
     10.107  0.6612E+00  0.1035E+02
     10.186  0.9093E+00  0.1040E+02
     10.265  0.1750E+01  0.1051E+02
     10.344  0.2039E+01  0.1066E+02
     10.423  0.2149E+01  0.1085E+02
     10.502  0.2318E+01  0.1102E+02
     10.581  0.2293E+01  0.1120E+02
     10.660  0.1877E+01  0.1137E+02
     10.739  0.1632E+01  0.1151E+02
     10.818  0.1520E+01  0.1163E+02
     10.897  0.1384E+01  0.1175E+02
     10.976  0.1317E+01  0.1185E+02
     11.055  0.1226E+01  0.1195E+02
     11.134  0.1249E+01  0.1205E+02
     11.213  0.1362E+01  0.1215E+02
     11.292  0.1580E+01  0.1227E+02
     11.371  0.1488E+01  0.1238E+02
     11.450  0.1600E+01  0.1251E+02
     11.529  0.1297E+01  0.1262E+02
     11.608  0.1245E+01  0.1272E+02
     11.687  0.1244E+01  0.1282E+02
     11.766  0.1320E+01  0.1292E+02
     11.845  0.1430E+01  0.1303E+02
     11.924  0.1485E+01  0.1315E+02
     12.003  0.1345E+01  0.1326E+02
     12.082  0.1269E+01  0.1336E+02
     12.161  0.1259E+01  0.1346E+02
     12.240  0.1190E+01  0.1356E+02
     12.319  0.1221E+01  0.1366E+02
     12.398  0.1151E+01  0.1375E+02
     12.477  0.1143E+01  0.1384E+02
     12.556  0.1197E+01  0.1393E+02
     12.635  0.1163E+01  0.1403E+02
     12.714  0.1140E+01  0.1412E+02
     12.792  0.1128E+01  0.1421E+02
     12.871  0.1027E+01  0.1429E+02
     12.950  0.9545E+00  0.1437E+02
     13.029  0.9999E+00  0.1445E+02
     13.108  0.9640E+00  0.1453E+02
     13.187  0.9494E+00  0.1460E+02
     13.266  0.9868E+00  0.1468E+02
     13.345  0.1183E+01  0.1476E+02
     13.424  0.1452E+01  0.1487E+02
     13.503  0.1382E+01  0.1498E+02
     13.582  0.1112E+01  0.1508E+02
     13.661  0.1082E+01  0.1516E+02
     13.740  0.9368E+00  0.1524E+02
     13.819  0.8558E+00  0.1531E+02
     13.898  0.7805E+00  0.1538E+02
     13.977  0.6758E+00  0.1544E+02
     14.056  0.6104E+00  0.1549E+02
     14.135  0.5435E+00  0.1553E+02
     14.214  0.4746E+00  0.1557E+02
     14.293  0.4211E+00  0.1561E+02
     14.372  0.3789E+00  0.1564E+02
     14.451  0.3576E+00  0.1567E+02
     14.530  0.3377E+00  0.1570E+02
     14.609  0.3161E+00  0.1572E+02
     14.688  0.2986E+00  0.1575E+02
     14.767  0.2906E+00  0.1577E+02
     14.846  0.2969E+00  0.1579E+02
     14.925  0.2914E+00  0.1582E+02
     15.004  0.2527E+00  0.1584E+02
     15.083  0.2182E+00  0.1586E+02
     15.162  0.1959E+00  0.1587E+02
     15.241  0.1792E+00  0.1589E+02
     15.320  0.1658E+00  0.1590E+02
     15.399  0.1580E+00  0.1591E+02
     15.478  0.1472E+00  0.1593E+02
     15.557  0.1356E+00  0.1594E+02
     15.636  0.1260E+00  0.1595E+02
     15.715  0.1224E+00  0.1596E+02
     15.794  0.1015E+00  0.1597E+02
     15.873  0.8785E-01  0.1597E+02
     15.952  0.7253E-01  0.1598E+02
     16.031  0.5905E-01  0.1599E+02
     16.110  0.4741E-01  0.1599E+02
     16.189  0.3760E-01  0.1599E+02
     16.268  0.2964E-01  0.1600E+02
     16.347  0.4897E-01  0.1600E+02
     16.426  0.0000E+00  0.1600E+02
     16.505  0.0000E+00  0.1600E+02
     16.584  0.0000E+00  0.1600E+02
     16.663  0.0000E+00  0.1600E+02
     16.742  0.0000E+00  0.1600E+02
     16.821  0.0000E+00  0.1600E+02
     16.900  0.0000E+00  0.1600E+02
     16.979  0.0000E+00  0.1600E+02
     17.058  0.0000E+00  0.1600E+02
     17.137  0.0000E+00  0.1600E+02
     17.216  0.0000E+00  0.1600E+02
     17.295  0.0000E+00  0.1600E+02
     17.374  0.0000E+00  0.1600E+02
     17.453  0.0000E+00  0.1600E+02
