    2    2    1    1
  0.2420320E+02  0.4090778E-09  0.4090778E-09  0.4090778E-09  0.0000000E+00
  1.000000000000000E-004
  CAR 
 unknown system                          
      8    220      8
 
  0.0000000E+00  0.0000000E+00  0.0000000E+00  0.1457938E-03
    1       -5.167308   1.000000
    2        6.685205   1.000000
    3        6.685205   1.000000
    4        6.685206   1.000000
    5        9.826607   0.000000
    6        9.883166   0.000000
    7        9.883166   0.000000
    8        9.883167   0.000000
 
  0.5263158E-01  0.0000000E+00  0.0000000E+00  0.1166351E-02
    1       -5.135642   1.000000
    2        6.322116   1.000000
    3        6.637263   1.000000
    4        6.637263   1.000000
    5        9.779011   0.000000
    6        9.954621   0.000000
    7        9.954622   0.000000
    8       10.221574   0.000000
 
  0.1052632E+00  0.0000000E+00  0.0000000E+00  0.1166351E-02
    1       -5.041176   1.000000
    2        5.522531   1.000000
    3        6.509687   1.000000
    4        6.509687   1.000000
    5        9.610865   0.000000
    6       10.141692   0.000000
    7       10.141692   0.000000
    8       10.999623   0.000000
 
  0.1578947E+00  0.0000000E+00  0.0000000E+00  0.1166351E-02
    1       -4.886037   1.000000
    2        4.595174   1.000000
    3        6.337339   1.000000
    4        6.337340   1.000000
    5        9.396290   0.000000
    6       10.373753   0.000000
    7       10.373754   0.000000
    8       11.887663   0.000000
 
  0.2105263E+00  0.0000000E+00  0.0000000E+00  0.1166351E-02
    1       -4.674323   1.000000
    2        3.659866   1.000000
    3        6.152778   1.000000
    4        6.152778   1.000000
    5        9.179535   0.000000
    6       10.559834   0.000000
    7       10.559835   0.000000
    8       12.759855   0.000000
 
  0.2631579E+00  0.0000000E+00  0.0000000E+00  0.1166351E-02
    1       -4.413427   1.000000
    2        2.767869   1.000000
    3        5.978535   1.000000
    4        5.978535   1.000000
    5        8.984719   0.000000
    6       10.632451   0.000000
    7       10.632452   0.000000
    8       13.462362   0.000000
 
  0.3157895E+00  0.0000000E+00  0.0000000E+00  0.1166351E-02
    1       -4.116744   1.000000
    2        1.952657   1.000000
    3        5.828547   1.000000
    4        5.828548   1.000000
    5        8.823446   0.000000
    6       10.598694   0.000000
    7       10.598694   0.000000
    8       13.585031   0.000000
 
  0.3684211E+00  0.0000000E+00  0.0000000E+00  0.1166351E-02
    1       -3.808772   1.000000
    2        1.249296   1.000000
    3        5.711022   1.000000
    4        5.711022   1.000000
    5        8.700813   0.000000
    6       10.516348   0.000000
    7       10.516348   0.000000
    8       13.427606   0.000000
 
  0.4210526E+00  0.0000000E+00  0.0000000E+00  0.1166351E-02
    1       -3.534010   1.000000
    2        0.708257   1.000000
    3        5.630640   1.000000
    4        5.630641   1.000000
    5        8.618695   0.000000
    6       10.437370   0.000000
    7       10.437370   0.000000
    8       13.283895   0.000000
 
  0.4736842E+00  0.0000000E+00  0.0000000E+00  0.1166351E-02
    1       -3.362634   1.000000
    2        0.402989   1.000000
    3        5.589901   1.000000
    4        5.589902   1.000000
    5        8.577632   0.000000
    6       10.391567   0.000000
    7       10.391567   0.000000
    8       13.206023   0.000000
 
  0.5263158E-01  0.5263158E-01  0.0000000E+00  0.8747631E-03
    1       -5.125055   1.000000
    2        6.382530   1.000000
    3        6.526570   1.000000
    4        6.526570   1.000000
    5        9.716261   0.000000
    6       10.096614   0.000000
    7       10.096614   0.000000
    8       10.155466   0.000000
 
  0.1052632E+00  0.5263158E-01  0.0000000E+00  0.3499052E-02
    1       -5.051450   1.000000
    2        5.754141   1.000000
    3        6.353789   1.000000
    4        6.472796   1.000000
    5        9.652008   0.000000
    6       10.043145   0.000000
    7       10.341278   0.000000
    8       10.828169   0.000000
 
  0.1578947E+00  0.5263158E-01  0.0000000E+00  0.3499052E-02
    1       -4.916412   1.000000
    2        4.879879   1.000000
    3        6.156336   1.000000
    4        6.359071   1.000000
    5        9.591734   0.000000
    6       10.065497   0.000000
    7       10.619863   0.000000
    8       11.618840   0.000000
 
  0.2105263E+00  0.5263158E-01  0.0000000E+00  0.3499052E-02
    1       -4.723258   1.000000
    2        3.958400   1.000000
    3        5.963239   1.000000
    4        6.186172   1.000000
    5        9.433632   0.000000
    6       10.224352   0.000000
    7       10.846190   0.000000
    8       12.241545   0.000000
 
  0.2631579E+00  0.5263158E-01  0.0000000E+00  0.3499052E-02
    1       -4.478110   1.000000
    2        3.059802   1.000000
    3        5.793221   1.000000
    4        5.991324   1.000000
    5        9.253001   0.000000
    6       10.356907   0.000000
    7       10.945067   0.000000
    8       12.618673   0.000000
 
  0.3157895E+00  0.5263158E-01  0.0000000E+00  0.3499052E-02
    1       -4.191969   1.000000
    2        2.223416   1.000000
    3        5.657432   1.000000
    4        5.800689   1.000000
    5        9.089956   0.000000
    6       10.386241   0.000000
    7       10.909102   0.000000
    8       13.010882   0.000000
 
  0.3684211E+00  0.5263158E-01  0.0000000E+00  0.3499052E-02
    1       -3.884820   1.000000
    2        1.483719   1.000000
    3        5.562129   1.000000
    4        5.630373   1.000000
    5        8.958683   0.000000
    6       10.347503   0.000000
    7       10.795669   0.000000
    8       13.379355   0.000000
 
  0.4210526E+00  0.5263158E-01  0.0000000E+00  0.3499052E-02
    1       -3.593370   1.000000
    2        0.885428   1.000000
    3        5.490241   1.000000
    4        5.510408   1.000000
    5        8.864850   0.000000
    6       10.300916   0.000000
    7       10.665766   0.000000
    8       13.456693   0.000000
 
  0.4736842E+00  0.5263158E-01  0.0000000E+00  0.3499052E-02
    1       -3.379529   1.000000
    2        0.494937   1.000000
    3        5.386653   1.000000
    4        5.503193   1.000000
    5        8.810718   0.000000
    6       10.284269   0.000000
    7       10.557476   0.000000
    8       13.417598   0.000000
 
 -0.4736842E+00  0.5263158E-01  0.0000000E+00  0.3499052E-02
    1       -3.318227   1.000000
    2        0.389449   1.000000
    3        5.323854   1.000000
    4        5.539790   1.000000
    5        8.797017   0.000000
    6       10.314322   0.000000
    7       10.489469   0.000000
    8       13.407896   0.000000
 
 -0.4210526E+00  0.5263158E-01  0.0000000E+00  0.3499052E-02
    1       -3.437567   1.000000
    2        0.597543   1.000000
    3        5.304685   1.000000
    4        5.618118   1.000000
    5        8.823841   0.000000
    6       10.394140   0.000000
    7       10.466973   0.000000
    8       13.452329   0.000000
 
 -0.3684211E+00  0.5263158E-01  0.0000000E+00  0.3499052E-02
    1       -3.685828   1.000000
    2        1.066406   1.000000
    3        5.330836   1.000000
    4        5.734661   1.000000
    5        8.891024   0.000000
    6       10.483141   0.000000
    7       10.515149   0.000000
    8       13.530166   0.000000
 
 -0.3157895E+00  0.5263158E-01  0.0000000E+00  0.3499052E-02
    1       -3.988030   1.000000
    2        1.718050   1.000000
    3        5.402789   1.000000
    4        5.884190   1.000000
    5        8.997932   0.000000
    6       10.515611   0.000000
    7       10.653192   0.000000
    8       13.532853   0.000000
 
 -0.2631579E+00  0.5263158E-01  0.0000000E+00  0.3499052E-02
    1       -4.291206   1.000000
    2        2.493758   1.000000
    3        5.519594   1.000000
    4        6.058836   1.000000
    5        9.142845   0.000000
    6       10.521147   0.000000
    7       10.758313   0.000000
    8       13.242955   0.000000
 
 -0.2105263E+00  0.5263158E-01  0.0000000E+00  0.3499052E-02
    1       -4.565296   1.000000
    2        3.353123   1.000000
    3        5.678394   1.000000
    4        6.246518   1.000000
    5        9.321369   0.000000
    6       10.446195   0.000000
    7       10.750312   0.000000
    8       12.759325   0.000000
 
 -0.1578947E+00  0.5263158E-01  0.0000000E+00  0.3499052E-02
    1       -4.793968   1.000000
    2        4.259760   1.000000
    3        5.873978   1.000000
    4        6.428356   1.000000
    5        9.523283   0.000000
    6       10.278813   0.000000
    7       10.571252   0.000000
    8       12.169993   0.000000
 
 -0.1052632E+00  0.5263158E-01  0.0000000E+00  0.3499052E-02
    1       -4.968221   1.000000
    2        5.160244   1.000000
    3        6.100029   1.000000
    4        6.576131   1.000000
    5        9.724481   0.000000
    6       10.083683   0.000000
    7       10.272947   0.000000
    8       11.447466   0.000000
 
 -0.5263158E-01  0.5263158E-01  0.0000000E+00  0.1749526E-02
    1       -5.082986   1.000000
    2        5.926612   1.000000
    3        6.365385   1.000000
    4        6.654698   1.000000
    5        9.836796   0.000000
    6        9.953985   0.000000
    7       10.023044   0.000000
    8       10.707242   0.000000
 
  0.1052632E+00  0.1052632E+00  0.0000000E+00  0.8747631E-03
    1       -4.998838   1.000000
    2        5.694547   1.000000
    3        6.147659   1.000000
    4        6.147659   1.000000
    5        9.373445   0.000000
    6       10.638013   0.000000
    7       10.638013   0.000000
    8       10.757743   0.000000
 
  0.1578947E+00  0.1052632E+00  0.0000000E+00  0.3499052E-02
    1       -4.884414   1.000000
    2        5.044350   1.000000
    3        5.928912   1.000000
    4        6.027966   1.000000
    5        9.281511   0.000000
    6       10.556731   0.000000
    7       10.967987   0.000000
    8       11.359735   0.000000
 
  0.2105263E+00  0.1052632E+00  0.0000000E+00  0.3499052E-02
    1       -4.710903   1.000000
    2        4.202072   1.000000
    3        5.724252   1.000000
    4        5.883307   1.000000
    5        9.335773   0.000000
    6       10.455682   0.000000
    7       11.250989   0.000000
    8       11.635836   0.000000
 
  0.2631579E+00  0.1052632E+00  0.0000000E+00  0.3499052E-02
    1       -4.483377   1.000000
    2        3.335957   1.000000
    3        5.550501   1.000000
    4        5.679275   1.000000
    5        9.378826   0.000000
    6       10.443670   0.000000
    7       11.403175   0.000000
    8       11.704896   0.000000
 
  0.3157895E+00  0.1052632E+00  0.0000000E+00  0.3499052E-02
    1       -4.210976   1.000000
    2        2.505173   1.000000
    3        5.417735   1.000000
    4        5.453660   1.000000
    5        9.334975   0.000000
    6       10.450969   0.000000
    7       11.394357   0.000000
    8       11.947460   0.000000
 
  0.3684211E+00  0.1052632E+00  0.0000000E+00  0.3499052E-02
    1       -3.910094   1.000000
    2        1.750075   1.000000
    3        5.235083   1.000000
    4        5.331609   1.000000
    5        9.251702   0.000000
    6       10.402884   0.000000
    7       11.274369   0.000000
    8       12.443408   0.000000
 
  0.4210526E+00  0.1052632E+00  0.0000000E+00  0.3499052E-02
    1       -3.610854   1.000000
    2        1.113620   1.000000
    3        5.041052   1.000000
    4        5.294849   1.000000
    5        9.178918   0.000000
    6       10.337398   0.000000
    7       11.113139   0.000000
    8       13.074340   0.000000
 
  0.4736842E+00  0.1052632E+00  0.0000000E+00  0.3499052E-02
    1       -3.365896   1.000000
    2        0.655687   1.000000
    3        4.882444   1.000000
    4        5.307990   1.000000
    5        9.139322   0.000000
    6       10.296560   0.000000
    7       10.958144   0.000000
    8       13.627196   0.000000
 
 -0.4736842E+00  0.1052632E+00  0.0000000E+00  0.3499052E-02
    1       -3.248990   1.000000
    2        0.453834   1.000000
    3        4.766538   1.000000
    4        5.369790   1.000000
    5        9.140407   0.000000
    6       10.300601   0.000000
    7       10.834137   0.000000
    8       13.869912   0.000000
 
 -0.4210526E+00  0.1052632E+00  0.0000000E+00  0.3499052E-02
    1       -3.310390   1.000000
    2        0.559509   1.000000
    3        4.698555   1.000000
    4        5.477198   1.000000
    5        9.182402   0.000000
    6       10.357757   0.000000
    7       10.750672   0.000000
    8       13.936622   0.000000
 
 -0.3684211E+00  0.1052632E+00  0.0000000E+00  0.3499052E-02
    1       -3.522143   1.000000
    2        0.943888   1.000000
    3        4.682483   1.000000
    4        5.625186   1.000000
    5        9.262343   0.000000
    6       10.467422   0.000000
    7       10.705102   0.000000
    8       13.883018   0.000000
 
 -0.3157895E+00  0.1052632E+00  0.0000000E+00  0.3499052E-02
    1       -3.810763   1.000000
    2        1.529673   1.000000
    3        4.721625   1.000000
    4        5.806139   1.000000
    5        9.376335   0.000000
    6       10.615729   0.000000
    7       10.680156   0.000000
    8       13.545513   0.000000
 
 -0.2631579E+00  0.1052632E+00  0.0000000E+00  0.3499052E-02
    1       -4.115192   1.000000
    2        2.247956   1.000000
    3        4.819458   1.000000
    4        6.008715   1.000000
    5        9.520069   0.000000
    6       10.638502   0.000000
    7       10.760516   0.000000
    8       12.992755   0.000000
 
 -0.2105263E+00  0.1052632E+00  0.0000000E+00  0.3499052E-02
    1       -4.399048   1.000000
    2        3.046055   1.000000
    3        4.981858   1.000000
    4        6.216029   1.000000
    5        9.686651   0.000000
    6       10.531581   0.000000
    7       10.799715   0.000000
    8       12.507217   0.000000
 
 -0.1578947E+00  0.1052632E+00  0.0000000E+00  0.3499052E-02
    1       -4.642387   1.000000
    2        3.867462   1.000000
    3        5.224315   1.000000
    4        6.402948   1.000000
    5        9.857627   0.000000
    6       10.352234   0.000000
    7       10.608472   0.000000
    8       12.224746   0.000000
 
 -0.1052632E+00  0.1052632E+00  0.0000000E+00  0.1749526E-02
    1       -4.834149   1.000000
    2        4.614428   1.000000
    3        5.589933   1.000000
    4        6.535023   1.000000
    5        9.940842   0.000000
    6       10.171666   0.000000
    7       10.314597   0.000000
    8       11.945349   0.000000
 
  0.1578947E+00  0.1578947E+00  0.0000000E+00  0.8747631E-03
    1       -4.790702   1.000000
    2        4.870153   1.000000
    3        5.693368   1.000000
    4        5.693368   1.000000
    5        8.957047   0.000000
    6       10.939209   0.000000
    7       11.357416   0.000000
    8       11.357416   0.000000
 
  0.2105263E+00  0.1578947E+00  0.0000000E+00  0.3499052E-02
    1       -4.637461   1.000000
    2        4.271942   1.000000
    3        5.476079   1.000000
    4        5.509440   1.000000
    5        8.868466   0.000000
    6       10.723528   0.000000
    7       11.603853   0.000000
    8       11.713833   0.000000
 
  0.2631579E+00  0.1578947E+00  0.0000000E+00  0.3499052E-02
    1       -4.428913   1.000000
    2        3.517629   1.000000
    3        5.293541   1.000000
    4        5.297491   1.000000
    5        8.950773   0.000000
    6       10.614500   0.000000
    7       11.544204   0.000000
    8       11.947054   0.000000
 
  0.3157895E+00  0.1578947E+00  0.0000000E+00  0.3499052E-02
    1       -4.172783   1.000000
    2        2.742386   1.000000
    3        5.038743   1.000000
    4        5.155720   1.000000
    5        9.035523   0.000000
    6       10.756984   0.000000
    7       11.408601   0.000000
    8       11.997805   0.000000
 
  0.3684211E+00  0.1578947E+00  0.0000000E+00  0.3499052E-02
    1       -3.882690   1.000000
    2        2.007585   1.000000
    3        4.770585   1.000000
    4        5.068349   1.000000
    5        9.041041   0.000000
    6       11.029574   0.000000
    7       11.435995   0.000000
    8       11.897980   0.000000
 
  0.4210526E+00  0.1578947E+00  0.0000000E+00  0.3499052E-02
    1       -3.583477   1.000000
    2        1.361829   1.000000
    3        4.521204   1.000000
    4        5.034319   1.000000
    5        9.015880   0.000000
    6       10.994429   0.000000
    7       11.725979   0.000000
    8       12.002689   0.000000
 
  0.4736842E+00  0.1578947E+00  0.0000000E+00  0.3499052E-02
    1       -3.319127   1.000000
    2        0.862342   1.000000
    3        4.307602   1.000000
    4        5.054362   1.000000
    5        9.013005   0.000000
    6       10.902884   0.000000
    7       11.541610   0.000000
    8       12.781174   0.000000
 
 -0.4736842E+00  0.1578947E+00  0.0000000E+00  0.3499052E-02
    1       -3.157085   1.000000
    2        0.583558   1.000000
    3        4.140467   1.000000
    4        5.127331   1.000000
    5        9.055841   0.000000
    6       10.839629   0.000000
    7       11.376970   0.000000
    8       13.620436   0.000000
 
 -0.4210526E+00  0.1578947E+00  0.0000000E+00  0.3499052E-02
    1       -3.160194   1.000000
    2        0.591156   1.000000
    3        4.027414   1.000000
    4        5.250127   1.000000
    5        9.150564   0.000000
    6       10.818063   0.000000
    7       11.245505   0.000000
    8       14.338723   0.000000
 
 -0.3684211E+00  0.1578947E+00  0.0000000E+00  0.3499052E-02
    1       -3.326845   1.000000
    2        0.882423   1.000000
    3        3.975020   1.000000
    4        5.417298   1.000000
    5        9.294064   0.000000
    6       10.843112   0.000000
    7       11.146805   0.000000
    8       14.213481   0.000000
 
 -0.3157895E+00  0.1578947E+00  0.0000000E+00  0.3499052E-02
    1       -3.592951   1.000000
    2        1.387090   1.000000
    3        3.990853   1.000000
    4        5.620216   1.000000
    5        9.476551   0.000000
    6       10.912761   0.000000
    7       11.064561   0.000000
    8       13.530131   0.000000
 
 -0.2631579E+00  0.1578947E+00  0.0000000E+00  0.3499052E-02
    1       -3.891964   1.000000
    2        2.023418   1.000000
    3        4.087321   1.000000
    4        5.845530   1.000000
    5        9.681388   0.000000
    6       10.960351   0.000000
    7       11.003274   0.000000
    8       12.814634   0.000000
 
 -0.2105263E+00  0.1578947E+00  0.0000000E+00  0.3499052E-02
    1       -4.180899   1.000000
    2        2.713059   1.000000
    3        4.291129   1.000000
    4        6.072838   1.000000
    5        9.880569   0.000000
    6       10.786566   0.000000
    7       11.013248   0.000000
    8       12.277297   0.000000
 
 -0.1578947E+00  0.1578947E+00  0.0000000E+00  0.1749526E-02
    1       -4.435493   1.000000
    2        3.358157   1.000000
    3        4.657391   1.000000
    4        6.271918   1.000000
    5       10.004121   0.000000
    6       10.553141   0.000000
    7       10.789236   0.000000
    8       12.135542   0.000000
 
  0.2105263E+00  0.2105263E+00  0.0000000E+00  0.8747631E-03
    1       -4.504601   1.000000
    2        4.007552   1.000000
    3        5.246337   1.000000
    4        5.246337   1.000000
    5        8.548696   0.000000
    6       10.372684   0.000000
    7       12.165571   0.000000
    8       12.165571   0.000000
 
  0.2631579E+00  0.2105263E+00  0.0000000E+00  0.3499052E-02
    1       -4.315949   1.000000
    2        3.470272   1.000000
    3        5.021338   1.000000
    4        5.052340   1.000000
    5        8.482520   0.000000
    6       10.086288   0.000000
    7       12.359472   0.000000
    8       12.513850   0.000000
 
  0.3157895E+00  0.2105263E+00  0.0000000E+00  0.3499052E-02
    1       -4.078066   1.000000
    2        2.828142   1.000000
    3        4.731574   1.000000
    4        4.904593   1.000000
    5        8.580841   0.000000
    6       10.022720   0.000000
    7       12.288327   0.000000
    8       12.666285   0.000000
 
  0.3684211E+00  0.2105263E+00  0.0000000E+00  0.3499052E-02
    1       -3.802599   1.000000
    2        2.173927   1.000000
    3        4.403124   1.000000
    4        4.809271   1.000000
    5        8.659044   0.000000
    6       10.290949   0.000000
    7       12.143926   0.000000
    8       12.619710   0.000000
 
  0.4210526E+00  0.2105263E+00  0.0000000E+00  0.3499052E-02
    1       -3.510341   1.000000
    2        1.567378   1.000000
    3        4.082979   1.000000
    4        4.769650   1.000000
    5        8.672937   0.000000
    6       10.857785   0.000000
    7       11.997384   0.000000
    8       12.458315   0.000000
 
  0.4736842E+00  0.2105263E+00  0.0000000E+00  0.3499052E-02
    1       -3.238082   1.000000
    2        1.067497   1.000000
    3        3.800502   1.000000
    4        4.786844   1.000000
    5        8.687462   0.000000
    6       11.555193   0.000000
    7       11.928836   0.000000
    8       12.260098   0.000000
 
 -0.4736842E+00  0.2105263E+00  0.0000000E+00  0.3499052E-02
    1       -3.044724   1.000000
    2        0.745937   1.000000
    3        3.572051   1.000000
    4        4.860039   1.000000
    5        8.744011   0.000000
    6       11.692930   0.000000
    7       12.067893   0.000000
    8       12.566217   0.000000
 
 -0.4210526E+00  0.2105263E+00  0.0000000E+00  0.3499052E-02
    1       -2.996210   1.000000
    2        0.674280   1.000000
    3        3.408483   1.000000
    4        4.986467   1.000000
    5        8.856629   0.000000
    6       11.635718   0.000000
    7       11.899531   0.000000
    8       13.507998   0.000000
 
 -0.3684211E+00  0.2105263E+00  0.0000000E+00  0.3499052E-02
    1       -3.113008   1.000000
    2        0.871243   1.000000
    3        3.320351   1.000000
    4        5.160901   1.000000
    5        9.026507   0.000000
    6       11.606159   0.000000
    7       11.754663   0.000000
    8       14.356285   0.000000
 
 -0.3157895E+00  0.2105263E+00  0.0000000E+00  0.3499052E-02
    1       -3.347440   1.000000
    2        1.276718   1.000000
    3        3.323664   1.000000
    4        5.374731   1.000000
    5        9.246768   0.000000
    6       11.611137   0.000000
    7       11.611153   0.000000
    8       13.507116   0.000000
 
 -0.2631579E+00  0.2105263E+00  0.0000000E+00  0.3499052E-02
    1       -3.632675   1.000000
    2        1.790723   1.000000
    3        3.450200   1.000000
    4        5.614208   1.000000
    5        9.500456   0.000000
    6       11.415933   0.000000
    7       11.622336   0.000000
    8       12.716794   0.000000
 
 -0.2105263E+00  0.2105263E+00  0.0000000E+00  0.1749526E-02
    1       -3.920028   1.000000
    2        2.298895   1.000000
    3        3.758481   1.000000
    4        5.857785   1.000000
    5        9.748332   0.000000
    6       11.121977   0.000000
    7       11.452512   0.000000
    8       12.241829   0.000000
 
  0.2631579E+00  0.2631579E+00  0.0000000E+00  0.8747631E-03
    1       -4.147524   1.000000
    2        3.145760   1.000000
    3        4.845809   1.000000
    4        4.845809   1.000000
    5        8.188929   0.000000
    6        9.654599   0.000000
    7       13.017486   0.000000
    8       13.017486   0.000000
 
  0.3157895E+00  0.2631579E+00  0.0000000E+00  0.3499052E-02
    1       -3.929446   1.000000
    2        2.665189   1.000000
    3        4.603813   1.000000
    4        4.685488   1.000000
    5        8.153995   0.000000
    6        9.412387   0.000000
    7       13.223840   0.000000
    8       13.335298   0.000000
 
  0.3684211E+00  0.2631579E+00  0.0000000E+00  0.3499052E-02
    1       -3.671981   1.000000
    2        2.137615   1.000000
    3        4.250481   1.000000
    4        4.578279   1.000000
    5        8.261325   0.000000
    6        9.453277   0.000000
    7       13.165129   0.000000
    8       13.395880   0.000000
 
  0.4210526E+00  0.2631579E+00  0.0000000E+00  0.3499052E-02
    1       -3.393107   1.000000
    2        1.625595   1.000000
    3        3.854353   1.000000
    4        4.527984   1.000000
    5        8.327204   0.000000
    6        9.860291   0.000000
    7       13.026818   0.000000
    8       13.273952   0.000000
 
  0.4736842E+00  0.2631579E+00  0.0000000E+00  0.3499052E-02
    1       -3.124239   1.000000
    2        1.182597   1.000000
    3        3.480734   1.000000
    4        4.536149   1.000000
    5        8.359371   0.000000
    6       10.541585   0.000000
    7       12.878792   0.000000
    8       13.077573   0.000000
 
 -0.4736842E+00  0.2631579E+00  0.0000000E+00  0.3499052E-02
    1       -2.915897   1.000000
    2        0.872143   1.000000
    3        3.167004   1.000000
    4        4.602402   1.000000
    5        8.420593   0.000000
    6       11.377101   0.000000
    7       12.754275   0.000000
    8       12.868242   0.000000
 
 -0.4210526E+00  0.2631579E+00  0.0000000E+00  0.3499052E-02
    1       -2.830000   1.000000
    2        0.761501   1.000000
    3        2.934927   1.000000
    4        4.724418   1.000000
    5        8.536319   0.000000
    6       12.240207   0.000000
    7       12.669662   0.000000
    8       12.733010   0.000000
 
 -0.3684211E+00  0.2631579E+00  0.0000000E+00  0.3499052E-02
    1       -2.899334   1.000000
    2        0.877591   1.000000
    3        2.804833   1.000000
    4        4.897463   1.000000
    5        8.712103   0.000000
    6       12.477164   0.000000
    7       12.477640   0.000000
    8       13.431336   0.000000
 
 -0.3157895E+00  0.2631579E+00  0.0000000E+00  0.3499052E-02
    1       -3.094882   1.000000
    2        1.164274   1.000000
    3        2.810230   1.000000
    4        5.113491   1.000000
    5        8.944029   0.000000
    6       12.246073   0.000000
    7       12.444834   0.000000
    8       13.521099   0.000000
 
 -0.2631579E+00  0.2631579E+00  0.0000000E+00  0.1749526E-02
    1       -3.356221   1.000000
    2        1.503030   1.000000
    3        3.009865   1.000000
    4        5.359393   1.000000
    5        9.218529   0.000000
    6       11.890040   0.000000
    7       12.263947   0.000000
    8       12.828906   0.000000
 
  0.3157895E+00  0.3157895E+00  0.0000000E+00  0.8747631E-03
    1       -3.732226   1.000000
    2        2.311384   1.000000
    3        4.511419   1.000000
    4        4.511419   1.000000
    5        7.898439   0.000000
    6        9.016346   0.000000
    7       13.890304   0.000000
    8       13.890304   0.000000
 
  0.3684211E+00  0.3157895E+00  0.0000000E+00  0.3499052E-02
    1       -3.495885   1.000000
    2        1.888284   1.000000
    3        4.272210   1.000000
    4        4.390178   1.000000
    5        7.898209   0.000000
    6        8.851499   0.000000
    7       14.110726   0.000000
    8       14.162948   0.000000
 
  0.4210526E+00  0.3157895E+00  0.0000000E+00  0.3499052E-02
    1       -3.236883   1.000000
    2        1.472913   1.000000
    3        3.883664   1.000000
    4        4.326231   1.000000
    5        8.008419   0.000000
    6        9.017965   0.000000
    7       14.063866   0.000000
    8       14.137498   0.000000
 
  0.4736842E+00  0.3157895E+00  0.0000000E+00  0.3499052E-02
    1       -2.983264   1.000000
    2        1.115826   1.000000
    3        3.444164   1.000000
    4        4.321629   1.000000
    5        8.072818   0.000000
    6        9.556423   0.000000
    7       13.929674   0.000000
    8       13.965235   0.000000
 
 -0.4736842E+00  0.3157895E+00  0.0000000E+00  0.3499052E-02
    1       -2.778869   1.000000
    2        0.866137   1.000000
    3        3.036616   1.000000
    4        4.376478   1.000000
    5        8.139106   0.000000
    6       10.330838   0.000000
    7       13.748395   0.000000
    8       13.780200   0.000000
 
 -0.4210526E+00  0.3157895E+00  0.0000000E+00  0.3499052E-02
    1       -2.677519   1.000000
    2        0.771406   1.000000
    3        2.715324   1.000000
    4        4.488942   1.000000
    5        8.253277   0.000000
    6       11.240704   0.000000
    7       13.520031   0.000000
    8       13.643724   0.000000
 
 -0.3684211E+00  0.3157895E+00  0.0000000E+00  0.3499052E-02
    1       -2.712528   1.000000
    2        0.841884   1.000000
    3        2.527908   1.000000
    4        4.654896   1.000000
    5        8.427692   0.000000
    6       12.226431   0.000000
    7       13.255584   0.000000
    8       13.530498   0.000000
 
 -0.3157895E+00  0.3157895E+00  0.0000000E+00  0.1749526E-02
    1       -2.867735   1.000000
    2        1.008922   1.000000
    3        2.538473   1.000000
    4        4.867081   1.000000
    5        8.661398   0.000000
    6       12.846420   0.000000
    7       13.018194   0.000000
    8       13.525057   0.000000
 
  0.3684211E+00  0.3684211E+00  0.0000000E+00  0.8747631E-03
    1       -3.283728   1.000000
    2        1.538799   1.000000
    3        4.253910   1.000000
    4        4.253911   1.000000
    5        7.688041   0.000000
    6        8.510936   0.000000
    7       14.770784   0.000000
    8       14.770784   0.000000
 
  0.4210526E+00  0.3684211E+00  0.0000000E+00  0.3499052E-02
    1       -3.051878   1.000000
    2        1.188552   1.000000
    3        4.032787   1.000000
    4        4.174687   1.000000
    5        7.722150   0.000000
    6        8.434313   0.000000
    7       14.988075   0.000000
    8       14.998469   0.000000
 
  0.4736842E+00  0.3684211E+00  0.0000000E+00  0.3499052E-02
    1       -2.827234   1.000000
    2        0.899188   1.000000
    3        3.639723   1.000000
    4        4.155136   1.000000
    5        7.832817   0.000000
    6        8.730058   0.000000
    7       14.890869   0.000000
    8       14.956647   0.000000
 