       N       E                     dE             d eps       ncg     rms          rms(c)
DAV:   1     0.154131534740E+02    0.15413E+02   -0.29203E+03  3520   0.750E+02
DAV:   2    -0.735588026526E+01   -0.22769E+02   -0.22342E+02  4920   0.888E+01
DAV:   3    -0.776461206209E+01   -0.40873E+00   -0.40845E+00  4448   0.139E+01
DAV:   4    -0.776715259783E+01   -0.25405E-02   -0.25405E-02  5616   0.135E+00
DAV:   5    -0.776715894557E+01   -0.63477E-05   -0.63477E-05  4520   0.522E-02    0.237E+00
RMM:   6    -0.766903478281E+01    0.98124E-01   -0.61283E-02  3522   0.150E+00    0.140E+00
RMM:   7    -0.763335924568E+01    0.35676E-01   -0.99670E-02  3586   0.198E+00    0.177E-01
RMM:   8    -0.763421452621E+01   -0.85528E-03   -0.27657E-03  3832   0.402E-01    0.536E-02
RMM:   9    -0.763444433826E+01   -0.22981E-03   -0.45778E-04  3822   0.154E-01    0.144E-02
RMM:  10    -0.763444222292E+01    0.21153E-05   -0.44605E-05  4174   0.485E-02    0.534E-03
RMM:  11    -0.763444262239E+01   -0.39946E-06   -0.62733E-06  3853   0.202E-02
   1 F= -.76344426E+01 E0= -.76344426E+01  d E =0.000000E+00
