unknown system                          
           1
     0.000000    2.892617    2.892617
     2.892617    0.000000    2.892617
     2.892617    2.892617    0.000000
   Al   Sb
   1   1
Direct configuration=     1
   0.25000000  0.25000000  0.25000000
   0.00000000  0.00000000  0.00000000
