   2   2   0   0
  0.2138750E+02  0.3925561E-09  0.3925561E-09  0.3925561E-09  0.0000000E+00
   1.0000000000000000E-004
  CAR 
 unknown system                          
     22.49876138    -23.29756191  301     -0.44839542      1.00000000
    -23.298  0.0000E+00  0.0000E+00
    -23.145  0.0000E+00  0.0000E+00
    -22.992  0.0000E+00  0.0000E+00
    -22.840  0.0000E+00  0.0000E+00
    -22.687  0.0000E+00  0.0000E+00
    -22.534  0.0000E+00  0.0000E+00
    -22.382  0.0000E+00  0.0000E+00
    -22.229  0.0000E+00  0.0000E+00
    -22.076  0.0000E+00  0.0000E+00
    -21.924  0.0000E+00  0.0000E+00
    -21.771  0.0000E+00  0.0000E+00
    -21.618  0.0000E+00  0.0000E+00
    -21.466  0.0000E+00  0.0000E+00
    -21.313  0.0000E+00  0.0000E+00
    -21.160  0.3930E+02  0.6000E+01
    -21.008  0.0000E+00  0.6000E+01
    -20.855  0.0000E+00  0.6000E+01
    -20.702  0.0000E+00  0.6000E+01
    -20.550  0.0000E+00  0.6000E+01
    -20.397  0.0000E+00  0.6000E+01
    -20.244  0.0000E+00  0.6000E+01
    -20.092  0.0000E+00  0.6000E+01
    -19.939  0.0000E+00  0.6000E+01
    -19.787  0.0000E+00  0.6000E+01
    -19.634  0.0000E+00  0.6000E+01
    -19.481  0.0000E+00  0.6000E+01
    -19.329  0.0000E+00  0.6000E+01
    -19.176  0.0000E+00  0.6000E+01
    -19.023  0.0000E+00  0.6000E+01
    -18.871  0.0000E+00  0.6000E+01
    -18.718  0.0000E+00  0.6000E+01
    -18.565  0.0000E+00  0.6000E+01
    -18.413  0.0000E+00  0.6000E+01
    -18.260  0.0000E+00  0.6000E+01
    -18.107  0.0000E+00  0.6000E+01
    -17.955  0.0000E+00  0.6000E+01
    -17.802  0.0000E+00  0.6000E+01
    -17.649  0.0000E+00  0.6000E+01
    -17.497  0.0000E+00  0.6000E+01
    -17.344  0.0000E+00  0.6000E+01
    -17.191  0.0000E+00  0.6000E+01
    -17.039  0.0000E+00  0.6000E+01
    -16.886  0.0000E+00  0.6000E+01
    -16.733  0.0000E+00  0.6000E+01
    -16.581  0.0000E+00  0.6000E+01
    -16.428  0.0000E+00  0.6000E+01
    -16.275  0.0000E+00  0.6000E+01
    -16.123  0.0000E+00  0.6000E+01
    -15.970  0.0000E+00  0.6000E+01
    -15.817  0.0000E+00  0.6000E+01
    -15.665  0.0000E+00  0.6000E+01
    -15.512  0.0000E+00  0.6000E+01
    -15.360  0.0000E+00  0.6000E+01
    -15.207  0.0000E+00  0.6000E+01
    -15.054  0.0000E+00  0.6000E+01
    -14.902  0.0000E+00  0.6000E+01
    -14.749  0.0000E+00  0.6000E+01
    -14.596  0.0000E+00  0.6000E+01
    -14.444  0.0000E+00  0.6000E+01
    -14.291  0.0000E+00  0.6000E+01
    -14.138  0.0000E+00  0.6000E+01
    -13.986  0.0000E+00  0.6000E+01
    -13.833  0.0000E+00  0.6000E+01
    -13.680  0.0000E+00  0.6000E+01
    -13.528  0.0000E+00  0.6000E+01
    -13.375  0.0000E+00  0.6000E+01
    -13.222  0.0000E+00  0.6000E+01
    -13.070  0.1814E+01  0.6108E+01
    -12.917  0.4539E+01  0.6451E+01
    -12.764  0.1562E+02  0.7987E+01
    -12.612  0.1910E-01  0.8000E+01
    -12.459  0.0000E+00  0.8000E+01
    -12.306  0.0000E+00  0.8000E+01
    -12.154  0.0000E+00  0.8000E+01
    -12.001  0.0000E+00  0.8000E+01
    -11.848  0.0000E+00  0.8000E+01
    -11.696  0.0000E+00  0.8000E+01
    -11.543  0.0000E+00  0.8000E+01
    -11.391  0.0000E+00  0.8000E+01
    -11.238  0.0000E+00  0.8000E+01
    -11.085  0.0000E+00  0.8000E+01
    -10.933  0.0000E+00  0.8000E+01
    -10.780  0.0000E+00  0.8000E+01
    -10.627  0.0000E+00  0.8000E+01
    -10.475  0.0000E+00  0.8000E+01
    -10.322  0.0000E+00  0.8000E+01
    -10.169  0.0000E+00  0.8000E+01
    -10.017  0.0000E+00  0.8000E+01
     -9.864  0.0000E+00  0.8000E+01
     -9.711  0.0000E+00  0.8000E+01
     -9.559  0.0000E+00  0.8000E+01
     -9.406  0.0000E+00  0.8000E+01
     -9.253  0.0000E+00  0.8000E+01
     -9.101  0.0000E+00  0.8000E+01
     -8.948  0.0000E+00  0.8000E+01
     -8.795  0.0000E+00  0.8000E+01
     -8.643  0.0000E+00  0.8000E+01
     -8.490  0.0000E+00  0.8000E+01
     -8.337  0.0000E+00  0.8000E+01
     -8.185  0.0000E+00  0.8000E+01
     -8.032  0.0000E+00  0.8000E+01
     -7.879  0.0000E+00  0.8000E+01
     -7.727  0.0000E+00  0.8000E+01
     -7.574  0.0000E+00  0.8000E+01
     -7.422  0.0000E+00  0.8000E+01
     -7.269  0.0000E+00  0.8000E+01
     -7.116  0.0000E+00  0.8000E+01
     -6.964  0.0000E+00  0.8000E+01
     -6.811  0.0000E+00  0.8000E+01
     -6.658  0.0000E+00  0.8000E+01
     -6.506  0.0000E+00  0.8000E+01
     -6.353  0.0000E+00  0.8000E+01
     -6.200  0.0000E+00  0.8000E+01
     -6.048  0.0000E+00  0.8000E+01
     -5.895  0.0000E+00  0.8000E+01
     -5.742  0.0000E+00  0.8000E+01
     -5.590  0.0000E+00  0.8000E+01
     -5.437  0.0000E+00  0.8000E+01
     -5.284  0.0000E+00  0.8000E+01
     -5.132  0.0000E+00  0.8000E+01
     -4.979  0.0000E+00  0.8000E+01
     -4.826  0.0000E+00  0.8000E+01
     -4.674  0.0000E+00  0.8000E+01
     -4.521  0.0000E+00  0.8000E+01
     -4.368  0.0000E+00  0.8000E+01
     -4.216  0.0000E+00  0.8000E+01
     -4.063  0.0000E+00  0.8000E+01
     -3.910  0.0000E+00  0.8000E+01
     -3.758  0.0000E+00  0.8000E+01
     -3.605  0.0000E+00  0.8000E+01
     -3.452  0.0000E+00  0.8000E+01
     -3.300  0.0000E+00  0.8000E+01
     -3.147  0.0000E+00  0.8000E+01
     -2.995  0.0000E+00  0.8000E+01
     -2.842  0.0000E+00  0.8000E+01
     -2.689  0.0000E+00  0.8000E+01
     -2.537  0.0000E+00  0.8000E+01
     -2.384  0.9599E+00  0.8063E+01
     -2.231  0.1693E+01  0.8246E+01
     -2.079  0.6913E+01  0.8765E+01
     -1.926  0.3037E+01  0.9478E+01
     -1.773  0.8271E+00  0.9693E+01
     -1.621  0.1803E+01  0.9868E+01
     -1.468  0.2081E+01  0.1016E+02
     -1.315  0.2354E+01  0.1050E+02
     -1.163  0.3485E+01  0.1091E+02
     -1.010  0.6586E+01  0.1164E+02
     -0.857  0.6765E+01  0.1253E+02
     -0.705  0.6528E+01  0.1344E+02
     -0.552  0.2369E+01  0.1389E+02
     -0.399  0.4011E+00  0.1400E+02
     -0.247  0.0000E+00  0.1400E+02
     -0.094  0.0000E+00  0.1400E+02
      0.059  0.0000E+00  0.1400E+02
      0.211  0.0000E+00  0.1400E+02
      0.364  0.0000E+00  0.1400E+02
      0.517  0.0000E+00  0.1400E+02
      0.669  0.0000E+00  0.1400E+02
      0.822  0.0000E+00  0.1400E+02
      0.974  0.0000E+00  0.1400E+02
      1.127  0.0000E+00  0.1400E+02
      1.280  0.0000E+00  0.1400E+02
      1.432  0.0000E+00  0.1400E+02
      1.585  0.0000E+00  0.1400E+02
      1.738  0.0000E+00  0.1400E+02
      1.890  0.0000E+00  0.1400E+02
      2.043  0.0000E+00  0.1400E+02
      2.196  0.0000E+00  0.1400E+02
      2.348  0.0000E+00  0.1400E+02
      2.501  0.0000E+00  0.1400E+02
      2.654  0.0000E+00  0.1400E+02
      2.806  0.0000E+00  0.1400E+02
      2.959  0.0000E+00  0.1400E+02
      3.112  0.0000E+00  0.1400E+02
      3.264  0.0000E+00  0.1400E+02
      3.417  0.0000E+00  0.1400E+02
      3.570  0.0000E+00  0.1400E+02
      3.722  0.0000E+00  0.1400E+02
      3.875  0.0000E+00  0.1400E+02
      4.028  0.0000E+00  0.1400E+02
      4.180  0.0000E+00  0.1400E+02
      4.333  0.0000E+00  0.1400E+02
      4.486  0.0000E+00  0.1400E+02
      4.638  0.0000E+00  0.1400E+02
      4.791  0.0000E+00  0.1400E+02
      4.944  0.9867E-02  0.1400E+02
      5.096  0.3517E-01  0.1400E+02
      5.249  0.5208E-01  0.1401E+02
      5.401  0.6967E-01  0.1402E+02
      5.554  0.8455E-01  0.1403E+02
      5.707  0.1023E+00  0.1405E+02
      5.859  0.1214E+00  0.1406E+02
      6.012  0.1429E+00  0.1408E+02
      6.165  0.1681E+00  0.1411E+02
      6.317  0.1967E+00  0.1414E+02
      6.470  0.2325E+00  0.1417E+02
      6.623  0.2838E+00  0.1421E+02
      6.775  0.3511E+00  0.1426E+02
      6.928  0.5704E+00  0.1432E+02
      7.081  0.6925E+00  0.1443E+02
      7.233  0.7651E+00  0.1454E+02
      7.386  0.1048E+01  0.1468E+02
      7.539  0.1269E+01  0.1486E+02
      7.691  0.1513E+01  0.1507E+02
      7.844  0.1555E+01  0.1530E+02
      7.997  0.1513E+01  0.1554E+02
      8.149  0.1436E+01  0.1577E+02
      8.302  0.1366E+01  0.1598E+02
      8.455  0.1079E+01  0.1615E+02
      8.607  0.1158E+01  0.1633E+02
      8.760  0.8112E+00  0.1646E+02
      8.913  0.1213E+01  0.1661E+02
      9.065  0.1664E+01  0.1686E+02
      9.218  0.1363E+01  0.1709E+02
      9.370  0.1666E+01  0.1733E+02
      9.523  0.1772E+01  0.1759E+02
      9.676  0.2262E+01  0.1792E+02
      9.828  0.2336E+01  0.1825E+02
      9.981  0.2463E+01  0.1863E+02
     10.134  0.1888E+01  0.1895E+02
     10.286  0.1598E+01  0.1922E+02
     10.439  0.1190E+01  0.1943E+02
     10.592  0.1023E+01  0.1960E+02
     10.744  0.9878E+00  0.1973E+02
     10.897  0.1262E+01  0.1990E+02
     11.050  0.2044E+01  0.2015E+02
     11.202  0.1169E+01  0.2037E+02
     11.355  0.1277E+01  0.2054E+02
     11.508  0.1481E+01  0.2075E+02
     11.660  0.1842E+01  0.2099E+02
     11.813  0.1723E+01  0.2127E+02
     11.966  0.1404E+01  0.2148E+02
     12.118  0.1143E+01  0.2167E+02
     12.271  0.1020E+01  0.2183E+02
     12.424  0.8947E+00  0.2198E+02
     12.576  0.8166E+00  0.2211E+02
     12.729  0.7308E+00  0.2223E+02
     12.882  0.8383E+00  0.2234E+02
     13.034  0.8931E+00  0.2248E+02
     13.187  0.8325E+00  0.2260E+02
     13.339  0.8649E+00  0.2273E+02
     13.492  0.8828E+00  0.2287E+02
     13.645  0.1030E+01  0.2301E+02
     13.797  0.1505E+01  0.2320E+02
     13.950  0.2032E+01  0.2348E+02
     14.103  0.1553E+01  0.2376E+02
     14.255  0.1129E+01  0.2396E+02
     14.408  0.1017E+01  0.2412E+02
     14.561  0.9357E+00  0.2427E+02
     14.713  0.9056E+00  0.2441E+02
     14.866  0.8626E+00  0.2454E+02
     15.019  0.1069E+01  0.2469E+02
     15.171  0.1067E+01  0.2485E+02
     15.324  0.1362E+01  0.2503E+02
     15.477  0.1636E+01  0.2526E+02
     15.629  0.1647E+01  0.2552E+02
     15.782  0.1653E+01  0.2577E+02
     15.935  0.1773E+01  0.2602E+02
     16.087  0.8328E+00  0.2622E+02
     16.240  0.6820E+00  0.2633E+02
     16.393  0.1142E+01  0.2646E+02
     16.545  0.2374E+01  0.2671E+02
     16.698  0.1822E+01  0.2706E+02
     16.851  0.1720E+01  0.2733E+02
     17.003  0.1565E+01  0.2758E+02
     17.156  0.1641E+01  0.2783E+02
     17.309  0.1741E+01  0.2808E+02
     17.461  0.1818E+01  0.2835E+02
     17.614  0.1617E+01  0.2861E+02
     17.766  0.1593E+01  0.2885E+02
     17.919  0.1675E+01  0.2910E+02
     18.072  0.1699E+01  0.2936E+02
     18.224  0.1701E+01  0.2962E+02
     18.377  0.2012E+01  0.2989E+02
     18.530  0.1648E+01  0.3018E+02
     18.682  0.1385E+01  0.3039E+02
     18.835  0.1593E+01  0.3061E+02
     18.988  0.1980E+01  0.3087E+02
     19.140  0.2095E+01  0.3118E+02
     19.293  0.1821E+01  0.3147E+02
     19.446  0.1631E+01  0.3174E+02
     19.598  0.6452E+00  0.3194E+02
     19.751  0.1323E+00  0.3198E+02
     19.904  0.4449E-01  0.3199E+02
     20.056  0.2103E-01  0.3200E+02
     20.209  0.6999E-02  0.3200E+02
     20.362  0.4977E-03  0.3200E+02
     20.514  0.0000E+00  0.3200E+02
     20.667  0.0000E+00  0.3200E+02
     20.820  0.0000E+00  0.3200E+02
     20.972  0.0000E+00  0.3200E+02
     21.125  0.0000E+00  0.3200E+02
     21.278  0.0000E+00  0.3200E+02
     21.430  0.0000E+00  0.3200E+02
     21.583  0.0000E+00  0.3200E+02
     21.735  0.0000E+00  0.3200E+02
     21.888  0.0000E+00  0.3200E+02
     22.041  0.0000E+00  0.3200E+02
     22.193  0.0000E+00  0.3200E+02
     22.346  0.0000E+00  0.3200E+02
     22.499  0.0000E+00  0.3200E+02
