 ----------------------------------------------------
    OOO  PPPP  EEEEE N   N M   M PPPP
   O   O P   P E     NN  N MM MM P   P
   O   O PPPP  EEEEE N N N M M M PPPP   -- VERSION
   O   O P     E     N  NN M   M P
    OOO  P     EEEEE N   N M   M P
 ----------------------------------------------------
 running  128 mpi-ranks, with    1 threads/rank
 distrk:  each k-point on   32 cores,    4 groups
 distr:  one band on   16 cores,    2 groups
 vasp.6.3.2 27Jun22 (build Jun 30 2023 15:13:53) complex                         
 POSCAR found type information on POSCAR NaCl
 POSCAR found :  2 types and       2 ions
 Reading from existing POTCAR
 scaLAPACK will be used
 Reading from existing POTCAR
 LDA part: xc-table for Pade appr. of Perdew
 -----------------------------------------------------------------------------
|                                                                             |
|           W    W    AA    RRRRR   N    N  II  N    N   GGGG   !!!           |
|           W    W   A  A   R    R  NN   N  II  NN   N  G    G  !!!           |
|           W    W  A    A  R    R  N N  N  II  N N  N  G       !!!           |
|           W WW W  AAAAAA  RRRRR   N  N N  II  N  N N  G  GGG   !            |
|           WW  WW  A    A  R   R   N   NN  II  N   NN  G    G                |
|           W    W  A    A  R    R  N    N  II  N    N   GGGG   !!!           |
|                                                                             |
|     The requested file  could not be found or opened for reading            |
|     k-point information. Automatic k-point generation is used as a          |
|     fallback, which may lead to unwanted results.                           |
|                                                                             |
 -----------------------------------------------------------------------------

 INCAR ok, starting setup
 POSCAR ok, starting setup
 FFT: planning ... GRIDC
 FFT: planning ... GRID_SOFT
 FFT: planning ... GRID
 WAVECAR not read
 entering main loop
       N       E                     dE             d eps       ncg     rms          rms(c)
DAV:   1     0.912453162765E+02    0.91245E+02   -0.66740E+03  2720   0.858E+02
DAV:   2    -0.436797741648E-01   -0.91289E+02   -0.83572E+02  3080   0.253E+02
DAV:   3    -0.689169171908E+01   -0.68480E+01   -0.68088E+01  3488   0.586E+01
DAV:   4    -0.698470293041E+01   -0.93011E-01   -0.92980E-01  3224   0.757E+00
DAV:   5    -0.698655794975E+01   -0.18550E-02   -0.18549E-02  3528   0.106E+00    0.214E+00
DAV:   6    -0.677716306061E+01    0.20939E+00   -0.30295E-01  3480   0.288E+00    0.157E+00
DAV:   7    -0.676517636761E+01    0.11987E-01   -0.75381E-02  3600   0.141E+00    0.109E+00
DAV:   8    -0.677147990480E+01   -0.63035E-02   -0.10900E-02  2880   0.761E-01    0.317E-01
DAV:   9    -0.677133225855E+01    0.14765E-03   -0.23623E-04  3448   0.997E-02    0.184E-01
DAV:  10    -0.677146763027E+01   -0.13537E-03   -0.37913E-04  2984   0.121E-01    0.753E-02
DAV:  11    -0.677145667831E+01    0.10952E-04   -0.14946E-05  3712   0.314E-02    0.244E-02
DAV:  12    -0.677145603247E+01    0.64584E-06   -0.34627E-06  3104   0.136E-02    0.156E-03
DAV:  13    -0.677145685222E+01   -0.81975E-06   -0.50086E-07  3032   0.439E-03    0.288E-03
DAV:  14    -0.677145670154E+01    0.15068E-06   -0.20256E-08  2760   0.871E-04    0.386E-04
DAV:  15    -0.677145666108E+01    0.40463E-07   -0.33508E-09  1752   0.374E-04
   1 F= -.67714567E+01 E0= -.67714567E+01  d E =0.000000E+00
 PROFILE, used timers:     367
