       N       E                     dE             d eps       ncg     rms          rms(c)
DAV:   1     0.111235614162E+03    0.11124E+03   -0.42896E+03 14592   0.459E+02
DAV:   2    -0.216205010308E+01   -0.11340E+03   -0.10516E+03 14960   0.160E+02
DAV:   3    -0.856014287902E+01   -0.63981E+01   -0.63145E+01 17192   0.378E+01
DAV:   4    -0.860119709077E+01   -0.41054E-01   -0.41046E-01 15552   0.311E+00
DAV:   5    -0.860127533199E+01   -0.78241E-04   -0.78240E-04 17064   0.133E-01    0.886E+00
DAV:   6    -0.769305706799E+01    0.90822E+00   -0.58668E-01 18680   0.784E+00    0.242E+00
DAV:   7    -0.768933588906E+01    0.37212E-02   -0.37522E-02 15648   0.119E+00    0.134E+00
DAV:   8    -0.770214296468E+01   -0.12807E-01   -0.39614E-02 14288   0.960E-01    0.109E-01
DAV:   9    -0.770216549195E+01   -0.22527E-04   -0.90440E-04 16944   0.204E-01    0.750E-02
DAV:  10    -0.770219336120E+01   -0.27869E-04   -0.23811E-04 14984   0.640E-02    0.889E-03
DAV:  11    -0.770219085927E+01    0.25019E-05   -0.70973E-06 16880   0.170E-02    0.455E-03
DAV:  12    -0.770219166249E+01   -0.80322E-06   -0.47417E-07 16944   0.373E-03    0.761E-04
DAV:  13    -0.770219188229E+01   -0.21980E-06   -0.82090E-08 15592   0.995E-04    0.298E-04
DAV:  14    -0.770219195794E+01   -0.75652E-07   -0.88910E-09 10032   0.413E-04
   1 F= -.77021920E+01 E0= -.77021920E+01  d E =0.000000E+00
