unknown system                          
            1
    -1.592842    1.592842    1.592842
     1.592842   -1.592842    1.592842
     1.592842    1.592842   -1.592842
   Ti
     1
Direct configuration=     1
   0.00000000  0.00000000  0.00000000
